# vtk DataFile Version 3.0
Unstructured Grid from OpenGeoSys
ASCII
DATASET UNSTRUCTURED_GRID
FIELD TimesAndCycles 2
TIME 1 1 double
1.000000000000e+00
CYLCE 1 1 long
1
POINTS 1172 double
-1.762093676000e+05 7.316923627800e+06 0.000000000000e+00
-1.757412204000e+05 7.315727532200e+06 0.000000000000e+00
-1.765215764000e+05 7.316368115000e+06 0.000000000000e+00
-1.765026078000e+05 7.316358753000e+06 0.000000000000e+00
-1.765001974000e+05 7.316357250900e+06 0.000000000000e+00
-1.764838139000e+05 7.316348727300e+06 0.000000000000e+00
-1.764720415000e+05 7.316342614000e+06 0.000000000000e+00
-1.764586054000e+05 7.316335053200e+06 0.000000000000e+00
-1.764464881000e+05 7.316328448700e+06 0.000000000000e+00
-1.764308229000e+05 7.316320315900e+06 0.000000000000e+00
-1.764140660000e+05 7.316313329300e+06 0.000000000000e+00
-1.764017849000e+05 7.316305960700e+06 0.000000000000e+00
-1.763949621000e+05 7.316302849500e+06 0.000000000000e+00
-1.763860651000e+05 7.316297118300e+06 0.000000000000e+00
-1.763711095000e+05 7.316289476700e+06 0.000000000000e+00
-1.763562630000e+05 7.316281453100e+06 0.000000000000e+00
-1.763437090000e+05 7.316275176100e+06 0.000000000000e+00
-1.763283167000e+05 7.316268134900e+06 0.000000000000e+00
-1.763297358000e+05 7.316265132900e+06 0.000000000000e+00
-1.763461106000e+05 7.316231673700e+06 0.000000000000e+00
-1.763591013000e+05 7.316238933200e+06 0.000000000000e+00
-1.763701816000e+05 7.316244391500e+06 0.000000000000e+00
-1.763725832000e+05 7.316245865200e+06 0.000000000000e+00
-1.763857922000e+05 7.316253561300e+06 0.000000000000e+00
-1.764007478000e+05 7.316261694200e+06 0.000000000000e+00
-1.764164676000e+05 7.316269772400e+06 0.000000000000e+00
-1.764286942000e+05 7.316276704400e+06 0.000000000000e+00
-1.764453419000e+05 7.316285110100e+06 0.000000000000e+00
-1.764604613000e+05 7.316293788800e+06 0.000000000000e+00
-1.764733428000e+05 7.316300284100e+06 0.000000000000e+00
-1.764846414000e+05 7.316306834000e+06 0.000000000000e+00
-1.764864972000e+05 7.316308089400e+06 0.000000000000e+00
-1.764982870000e+05 7.316314530200e+06 0.000000000000e+00
-1.765148256000e+05 7.316322717600e+06 0.000000000000e+00
-1.765338203000e+05 7.316279215200e+06 0.000000000000e+00
-1.765164630000e+05 7.316270372800e+06 0.000000000000e+00
-1.765030357000e+05 7.316264314100e+06 0.000000000000e+00
-1.764952850000e+05 7.316260111300e+06 0.000000000000e+00
-1.764906455000e+05 7.316258746700e+06 0.000000000000e+00
-1.764827856000e+05 7.316254325500e+06 0.000000000000e+00
-1.764770544000e+05 7.316252142200e+06 0.000000000000e+00
-1.764678299000e+05 7.316246902300e+06 0.000000000000e+00
-1.764620441000e+05 7.316244609800e+06 0.000000000000e+00
-1.764530926000e+05 7.316239861100e+06 0.000000000000e+00
-1.764450144000e+05 7.316235985700e+06 0.000000000000e+00
-1.764345345000e+05 7.316230472900e+06 0.000000000000e+00
-1.764325149000e+05 7.316229763300e+06 0.000000000000e+00
-1.764226355000e+05 7.316224414200e+06 0.000000000000e+00
-1.764164676000e+05 7.316222285500e+06 0.000000000000e+00
-1.764081711000e+05 7.316218355500e+06 0.000000000000e+00
-1.764005841000e+05 7.316216008500e+06 0.000000000000e+00
-1.763939796000e+05 7.316212296900e+06 0.000000000000e+00
-1.763863380000e+05 7.316208967300e+06 0.000000000000e+00
-1.763751486000e+05 7.316203399900e+06 0.000000000000e+00
-1.763745482000e+05 7.316204382400e+06 0.000000000000e+00
-1.763625400000e+05 7.316198814900e+06 0.000000000000e+00
-1.763838818000e+05 7.316182603900e+06 0.000000000000e+00
-1.764014574000e+05 7.316195976700e+06 0.000000000000e+00
-1.764136293000e+05 7.316204709900e+06 0.000000000000e+00
-1.764281483000e+05 7.316212024000e+06 0.000000000000e+00
-1.764401019000e+05 7.316219174300e+06 0.000000000000e+00
-1.764603521000e+05 7.316223868400e+06 0.000000000000e+00
-1.764747073000e+05 7.316231182500e+06 0.000000000000e+00
-1.764905909000e+05 7.316235549100e+06 0.000000000000e+00
-1.765008524000e+05 7.316248212200e+06 0.000000000000e+00
-1.765211026000e+05 7.316258473800e+06 0.000000000000e+00
-1.765392786000e+05 7.316267807400e+06 0.000000000000e+00
-1.763675070000e+05 7.316187680100e+06 0.000000000000e+00
-1.764865250000e+05 7.316386913000e+06 0.000000000000e+00
-1.764709478000e+05 7.316380002800e+06 0.000000000000e+00
-1.764586500000e+05 7.316373678200e+06 0.000000000000e+00
-1.764433071000e+05 7.316367119400e+06 0.000000000000e+00
-1.764450639000e+05 7.316363488600e+06 0.000000000000e+00
-1.764171890000e+05 7.316353533300e+06 0.000000000000e+00
-1.763991522000e+05 7.316347911400e+06 0.000000000000e+00
-1.763850976000e+05 7.316342523900e+06 0.000000000000e+00
-1.763809984000e+05 7.316340649900e+06 0.000000000000e+00
-1.763649527000e+05 7.316334910900e+06 0.000000000000e+00
-1.763547631000e+05 7.316331163100e+06 0.000000000000e+00
-1.763449249000e+05 7.316328820600e+06 0.000000000000e+00
-1.763302847000e+05 7.316322730300e+06 0.000000000000e+00
-1.763245457000e+05 7.316321442000e+06 0.000000000000e+00
-1.763141219000e+05 7.316316874200e+06 0.000000000000e+00
-1.763042837000e+05 7.316314531800e+06 0.000000000000e+00
-1.762905805000e+05 7.316310315400e+06 0.000000000000e+00
-1.763196266000e+05 7.316260295100e+06 0.000000000000e+00
-1.763175278000e+05 7.316259920300e+06 0.000000000000e+00
-1.763074085000e+05 7.316256397300e+06 0.000000000000e+00
-1.763346932000e+05 7.316185787000e+06 0.000000000000e+00
-1.763470214000e+05 7.316133942200e+06 0.000000000000e+00
-1.763591660000e+05 7.316079402000e+06 0.000000000000e+00
-1.763764996000e+05 7.316000572700e+06 0.000000000000e+00
-1.763925084000e+05 7.315940291400e+06 0.000000000000e+00
-1.763790389000e+05 7.315938525000e+06 0.000000000000e+00
-1.763821303000e+05 7.315921191300e+06 0.000000000000e+00
-1.763661215000e+05 7.315938193700e+06 0.000000000000e+00
-1.763691025000e+05 7.315913242200e+06 0.000000000000e+00
-1.763617053000e+05 7.315998364600e+06 0.000000000000e+00
-1.763443717000e+05 7.316076531500e+06 0.000000000000e+00
-1.763473526000e+05 7.316077414700e+06 0.000000000000e+00
-1.763367537000e+05 7.316131182000e+06 0.000000000000e+00
-1.763244988000e+05 7.316183955700e+06 0.000000000000e+00
-1.763111397000e+05 7.316181747600e+06 0.000000000000e+00
-1.763237259000e+05 7.316128753100e+06 0.000000000000e+00
-1.763350977000e+05 7.316074654600e+06 0.000000000000e+00
-1.763327791000e+05 7.316074102500e+06 0.000000000000e+00
-1.763487879000e+05 7.315997150100e+06 0.000000000000e+00
-1.763507752000e+05 7.315937641700e+06 0.000000000000e+00
-1.763559642000e+05 7.315937420900e+06 0.000000000000e+00
-1.763596076000e+05 7.315906728300e+06 0.000000000000e+00
-1.763379682000e+05 7.315936316900e+06 0.000000000000e+00
-1.763356497000e+05 7.315936427300e+06 0.000000000000e+00
-1.763472422000e+05 7.315881666300e+06 0.000000000000e+00
-1.763386306000e+05 7.315880010200e+06 0.000000000000e+00
-1.763400659000e+05 7.315867203200e+06 0.000000000000e+00
-1.763331104000e+05 7.315880341400e+06 0.000000000000e+00
-1.763244988000e+05 7.315879016600e+06 0.000000000000e+00
-1.763263756000e+05 7.315866982400e+06 0.000000000000e+00
-1.763206346000e+05 7.315878906200e+06 0.000000000000e+00
-1.763210762000e+05 7.315934440000e+06 0.000000000000e+00
-1.763186473000e+05 7.315934881600e+06 0.000000000000e+00
-1.763105877000e+05 7.315933667100e+06 0.000000000000e+00
-1.763296878000e+05 7.315996046100e+06 0.000000000000e+00
-1.763133478000e+05 7.315994279600e+06 0.000000000000e+00
-1.763112501000e+05 7.315993175500e+06 0.000000000000e+00
-1.763091524000e+05 7.316068140700e+06 0.000000000000e+00
-1.763226219000e+05 7.316072556900e+06 0.000000000000e+00
-1.763119126000e+05 7.316125551400e+06 0.000000000000e+00
-1.763023073000e+05 7.316180643600e+06 0.000000000000e+00
-1.762947998000e+05 7.316180643600e+06 0.000000000000e+00
-1.762887275000e+05 7.316178104200e+06 0.000000000000e+00
-1.762998784000e+05 7.316123674500e+06 0.000000000000e+00
-1.762974495000e+05 7.316121245600e+06 0.000000000000e+00
-1.763042946000e+05 7.316068140700e+06 0.000000000000e+00
-1.762943581000e+05 7.316065822200e+06 0.000000000000e+00
-1.762850841000e+05 7.316118816700e+06 0.000000000000e+00
-1.762920396000e+05 7.316064386900e+06 0.000000000000e+00
-1.762850841000e+05 7.316063282800e+06 0.000000000000e+00
-1.763010929000e+05 7.315993396300e+06 0.000000000000e+00
-1.762972287000e+05 7.315991519500e+06 0.000000000000e+00
-1.763029697000e+05 7.315934219200e+06 0.000000000000e+00
-1.763012033000e+05 7.315932783900e+06 0.000000000000e+00
-1.763067235000e+05 7.315877470900e+06 0.000000000000e+00
-1.763087108000e+05 7.315877029300e+06 0.000000000000e+00
-1.763133478000e+05 7.315843134900e+06 0.000000000000e+00
-1.762949499000e+05 7.315875430600e+06 0.000000000000e+00
-1.762927369000e+05 7.315875190400e+06 0.000000000000e+00
-1.762987966000e+05 7.315843896800e+06 0.000000000000e+00
-1.762832855000e+05 7.315873833700e+06 0.000000000000e+00
-1.762877624000e+05 7.315836525600e+06 0.000000000000e+00
-1.762765829000e+05 7.315873496300e+06 0.000000000000e+00
-1.762711730000e+05 7.315872061000e+06 0.000000000000e+00
-1.762762517000e+05 7.315827236500e+06 0.000000000000e+00
-1.762627823000e+05 7.315871288200e+06 0.000000000000e+00
-1.762585604000e+05 7.315870484400e+06 0.000000000000e+00
-1.762639305000e+05 7.315813745000e+06 0.000000000000e+00
-1.762614574000e+05 7.315811978500e+06 0.000000000000e+00
-1.762519890000e+05 7.315811978500e+06 0.000000000000e+00
-1.762437926000e+05 7.315868223400e+06 0.000000000000e+00
-1.762498693000e+05 7.315869707200e+06 0.000000000000e+00
-1.762422469000e+05 7.315810896600e+06 0.000000000000e+00
-1.762471047000e+05 7.315792238100e+06 0.000000000000e+00
-1.762298815000e+05 7.315865988700e+06 0.000000000000e+00
-1.762359538000e+05 7.315867313600e+06 0.000000000000e+00
-1.762192826000e+05 7.315864995100e+06 0.000000000000e+00
-1.762126583000e+05 7.315863449400e+06 0.000000000000e+00
-1.762243612000e+05 7.315809980300e+06 0.000000000000e+00
-1.762245421000e+05 7.315808759300e+06 0.000000000000e+00
-1.762277077000e+05 7.315793429000e+06 0.000000000000e+00
[...]
POINT_DATA 1172
SCALARS T(C) double 1
LOOKUP_TABLE default
2.500000000000e+01
3.000000000000e+00
2.500000000000e+01
2.338464701379e+01
2.339119322329e+01
2.343249317336e+01
2.318275844251e+01
2.270562336634e+01
2.283760579608e+01
2.188518871448e+01
1.972960405496e+01
1.843030689263e+01
1.833988472530e+01
1.815969877393e+01
1.806739047963e+01
1.785959848838e+01
1.780884133894e+01
1.768341574494e+01
1.762047840053e+01
1.779320364518e+01
1.797523145694e+01
1.803707567847e+01
1.810632036000e+01
1.822310774952e+01
1.835686506102e+01
1.854273426638e+01
1.921296017136e+01
2.241122760345e+01
2.355221587021e+01
2.343367937071e+01
2.347718849847e+01
2.347263240776e+01
2.354563312643e+01
2.349770993212e+01
2.366770737023e+01
2.372612415317e+01
2.375187551836e+01
2.377252661347e+01
2.378370803619e+01
2.380511137953e+01
2.381945156833e+01
2.385390758723e+01
2.012038426478e+01
1.886502093006e+01
1.876282819487e+01
1.868534773170e+01
1.867123898670e+01
1.861254854741e+01
1.857821246465e+01
1.853289743687e+01
1.849343806885e+01
1.843234324503e+01
1.838912976609e+01
1.828093905481e+01
1.827388554359e+01
1.810475252903e+01
2.500000000000e+01
2.500000000000e+01
2.500000000000e+01
2.500000000000e+01
2.500000000000e+01
2.500000000000e+01
2.500000000000e+01
2.500000000000e+01
2.500000000000e+01
2.500000000000e+01
2.500000000000e+01
2.500000000000e+01
2.330797206869e+01
2.334934761387e+01
2.287506388623e+01
2.201186667491e+01
2.202316648348e+01
2.060320914683e+01
1.939176387182e+01
1.893834939699e+01
1.843514727604e+01
1.837569439039e+01
1.807894954655e+01
1.804342466521e+01
1.769924941676e+01
1.767659529513e+01
1.747433277685e+01
1.743216775525e+01
1.732446395665e+01
1.759311986337e+01
1.756036846650e+01
1.732119259048e+01
1.759735460615e+01
1.739793253931e+01
1.695420244026e+01
1.588833598096e+01
1.483683795063e+01
1.452323360651e+01
2.500000000000e+01
1.421596570154e+01
2.500000000000e+01
1.532194991800e+01
1.641777313324e+01
1.645266414211e+01
1.687811075172e+01
1.713711585675e+01
1.679702053025e+01
1.645994098033e+01
1.607030903166e+01
1.604423293086e+01
1.498960194309e+01
1.394203354434e+01
1.403530439036e+01
2.500000000000e+01
1.375681692036e+01
1.365931945175e+01
1.257280120518e+01
1.236112399322e+01
2.500000000000e+01
1.222578885905e+01
1.204823980461e+01
2.500000000000e+01
1.196867684029e+01
1.343851074635e+01
1.327864646115e+01
1.316095824300e+01
1.459678521197e+01
1.420214278467e+01
1.417317429610e+01
1.552077600505e+01
1.567875042773e+01
1.606779977159e+01
1.657136296541e+01
1.628666739649e+01
1.623246014111e+01
1.571963007704e+01
1.569158327828e+01
1.516014243266e+01
1.504727391961e+01
1.542303473786e+01
1.502281224624e+01
1.477638777695e+01
1.385059487972e+01
1.379818296506e+01
1.292505059790e+01
1.289429038333e+01
1.170874811136e+01
1.174657686800e+01
2.500000000000e+01
1.151088288851e+01
1.147369899484e+01
2.500000000000e+01
1.132857310874e+01
2.500000000000e+01
1.122563983496e+01
1.114670727547e+01
2.500000000000e+01
1.102702233558e+01
1.097102361783e+01
2.500000000000e+01
2.500000000000e+01
1.128208137199e+01
1.078093941876e+01
1.085663646224e+01
1.105254854092e+01
2.500000000000e+01
9.898768826265e+00
9.986886010051e+00
9.212232222710e+00
9.110850552461e+00
1.069480801610e+01
1.067044535636e+01
2.500000000000e+01
1.025412945009e+01
1.022982213210e+01
2.500000000000e+01
9.708100190096e+00
2.500000000000e+01
8.738099888670e+00
8.497075533392e+00
8.420449789882e+00
1.000281754251e+01
1.039915780827e+01
1.055176189499e+01
1.078747404131e+01
1.084861243874e+01
1.112384521087e+01
1.117923934356e+01
1.151149485802e+01
1.153421915914e+01
1.167565583160e+01
1.191393503832e+01
1.223565735930e+01
1.226569917271e+01
1.258023221246e+01
1.259914142183e+01
1.343222770592e+01
1.351314791322e+01
1.318470900609e+01
1.303771481902e+01
1.280142775235e+01
1.267103104649e+01
1.248333784628e+01
1.230682875333e+01
1.203600204824e+01
1.210147624496e+01
1.173907195859e+01
1.155799294733e+01
1.137973053234e+01
1.100107580200e+01
1.069993743197e+01
1.218270809298e+01
1.153827610561e+01
1.189573092430e+01
1.221036308851e+01
1.224912966921e+01
1.250996990501e+01
1.281618855009e+01
1.310211499213e+01
1.324747277185e+01
1.348613242590e+01
1.359269290541e+01
1.384097731787e+01
1.388788817301e+01
1.415039037705e+01
1.419885253488e+01
1.446126557725e+01
1.452761511796e+01
1.510976575347e+01
1.487604367603e+01
1.476369482934e+01
1.450906683381e+01
1.448722263374e+01
1.423474750299e+01
1.399994872350e+01
1.398043275619e+01
1.377522392291e+01
1.375498714021e+01
1.349179334221e+01
1.328673220136e+01
1.312155858944e+01
1.301070971924e+01
1.285589640345e+01
1.272129217720e+01
1.244888094642e+01
1.360913905087e+01
1.384999656198e+01
1.387880070496e+01
1.408082361127e+01
1.416013307428e+01
1.434656072844e+01
1.445446579818e+01
1.462385370379e+01
1.471886664288e+01
1.485931839668e+01
1.490935695970e+01
1.507756167688e+01
1.513454130521e+01
1.529617560714e+01
1.533370134746e+01
1.548813323644e+01
1.550120216616e+01
1.564374415154e+01
1.590111809391e+01
1.598831810138e+01
1.710263889380e+01
1.690284442484e+01
1.684450054543e+01
1.671469090891e+01
1.668304582728e+01
1.656320869001e+01
1.652285723557e+01
1.636863652292e+01
1.632212292983e+01
1.619418629621e+01
1.616792106772e+01
1.598741797494e+01
1.596904240312e+01
1.577768014180e+01
1.575516858061e+01
1.554437417809e+01
1.552882327701e+01
1.532822016013e+01
1.531273415121e+01
1.510671802718e+01
1.507203643826e+01
1.486168997840e+01
1.480033289237e+01
1.459543940263e+01
1.452612294809e+01
1.426234194057e+01
1.330205438359e+01
1.362228837998e+01
1.304024687329e+01
1.379108693693e+01
1.382189937477e+01
1.398089767314e+01
1.475406624251e+01
1.487266013744e+01
1.515572051692e+01
1.524562841123e+01
1.545508060619e+01
1.554145747358e+01
1.571820495699e+01
1.592513391623e+01
1.614054378658e+01
1.615625672895e+01
1.636530351399e+01
1.639313257708e+01
1.655164760875e+01
1.660602158665e+01
1.673370981219e+01
1.678779119964e+01
1.689201646210e+01
1.703456540765e+01
1.704519476827e+01
1.705312548421e+01
1.716337019885e+01
1.719069426095e+01
1.727290732596e+01
1.759808981804e+01
1.766638173588e+01
1.768088212156e+01
1.787117932466e+01
1.796486787965e+01
1.823804790235e+01
1.854607737893e+01
1.863452115206e+01
1.908078870791e+01
1.912232870889e+01
1.976378831587e+01
1.978173657743e+01
2.013674457533e+01
2.141377520735e+01
2.500000000000e+01
2.252601733444e+01
2.254946050384e+01
2.325280842983e+01
2.322165493279e+01
2.318881879953e+01
2.321173318920e+01
2.500000000000e+01
2.500000000000e+01
2.308092499102e+01
2.500000000000e+01
2.500000000000e+01
2.500000000000e+01
2.500000000000e+01
2.304264500365e+01
2.234698665458e+01
2.215863139211e+01
2.500000000000e+01
2.207967716299e+01
2.500000000000e+01
2.205669839017e+01
2.046664774903e+01
2.003686490652e+01
2.012500781302e+01
2.038558209273e+01
1.966162733321e+01
1.954122863248e+01
1.898136070028e+01
1.933551791291e+01
1.882986914886e+01
1.851496448899e+01
1.811114313782e+01
1.781763310020e+01
1.791793944087e+01
1.826284029460e+01
1.828647030720e+01
1.887527526015e+01
2.297775885182e+01
2.250761106023e+01
2.249886929919e+01
2.322663645630e+01
2.339900271574e+01
2.349091642843e+01
2.500000000000e+01
2.335649891818e+01
2.500000000000e+01
2.500000000000e+01
2.500000000000e+01
2.246822603404e+01
2.174408366261e+01
2.131781208248e+01
2.500000000000e+01
2.029200355729e+01
2.018859932270e+01
2.008076160533e+01
2.065661184828e+01
2.122957520911e+01
2.130399655218e+01
2.174573989085e+01
2.193328435603e+01
2.230227995866e+01
2.259632509639e+01
2.268523637262e+01
2.313016670938e+01
2.319685901059e+01
2.331054812355e+01
2.319997669318e+01
2.313341557552e+01
2.500000000000e+01
2.500000000000e+01
2.500000000000e+01
2.500000000000e+01
2.500000000000e+01
2.500000000000e+01
2.500000000000e+01
2.305440873923e+01
2.299037586646e+01
2.258453698303e+01
2.252287453363e+01
2.211450069304e+01
2.205893320110e+01
2.166900342145e+01
2.164399961674e+01
2.127221952196e+01
2.089610046365e+01
2.033023979636e+01
2.021291349386e+01
1.985083729313e+01
2.500000000000e+01
2.025152433239e+01
1.957953481729e+01
1.947304537288e+01
1.900449556071e+01
1.853754200064e+01
1.842566316391e+01
1.984016450693e+01
1.939576913669e+01
1.899594262882e+01
1.952934203385e+01
1.951885811539e+01
1.923021872742e+01
1.863012315767e+01
2.500000000000e+01
2.500000000000e+01
2.500000000000e+01
2.296951667628e+01
2.306769880837e+01
2.326778678786e+01
2.310177737986e+01
2.298848016220e+01
2.317375536533e+01
2.293010392752e+01
2.265803709542e+01
2.500000000000e+01
2.253242315675e+01
2.500000000000e+01
2.274498800043e+01
2.257189949380e+01
2.241247639306e+01
2.500000000000e+01
2.230254510172e+01
2.500000000000e+01
2.239706831233e+01
2.221719854763e+01
2.500000000000e+01
2.220409784336e+01
2.281925820116e+01
2.269830867873e+01
2.244673179733e+01
2.264870044849e+01
2.246346264267e+01
2.234995554477e+01
2.208580696461e+01
2.219691200776e+01
2.222570534839e+01
2.211931719203e+01
2.500000000000e+01
2.207825076443e+01
2.202952833411e+01
2.191504752686e+01
2.192040864085e+01
2.201695822753e+01
2.174330862036e+01
2.166164539015e+01
2.165538558368e+01
2.184910491769e+01
2.197330369496e+01
2.202492697878e+01
2.500000000000e+01
2.193806074100e+01
2.500000000000e+01
2.188199764779e+01
2.186162665710e+01
2.500000000000e+01
2.167259328564e+01
2.139053843042e+01
2.126221325768e+01
2.090401417883e+01
2.080633078069e+01
2.046864092652e+01
2.036619780470e+01
2.010327194843e+01
1.996660409374e+01
1.967060044675e+01
2.015109488877e+01
2.044336478173e+01
2.057316214929e+01
2.084868421359e+01
2.110125644827e+01
2.135208804006e+01
2.148724990210e+01
2.177654509594e+01
2.500000000000e+01
2.168028135097e+01
2.500000000000e+01
2.124769420593e+01
2.102857132144e+01
2.135404615768e+01
2.158265437974e+01
2.162801465312e+01
2.149301143126e+01
2.124494455128e+01
2.068493063914e+01
2.072132679234e+01
2.047411091816e+01
2.040779097299e+01
2.097564352270e+01
2.135810855658e+01
2.500000000000e+01
2.121843897720e+01
2.500000000000e+01
2.120872333256e+01
2.080168722192e+01
2.077463256496e+01
2.066885307789e+01
2.106934217063e+01
2.109321329061e+01
2.500000000000e+01
2.089739318774e+01
2.500000000000e+01
2.052350872753e+01
2.058444929833e+01
2.000569065707e+01
2.016086869027e+01
2.018249366145e+01
2.029551158728e+01
1.966795012520e+01
1.989595379867e+01
1.990451287340e+01
1.939978104552e+01
1.915990793126e+01
1.914465217261e+01
1.894227263639e+01
1.891078898297e+01
1.877940747805e+01
1.934766849028e+01
1.945221478511e+01
1.949749113757e+01
1.896191948869e+01
1.880329592275e+01
1.871275060592e+01
1.850685780399e+01
1.844506001579e+01
1.833993047308e+01
1.827217367582e+01
1.816219860665e+01
1.808577611834e+01
1.795005751540e+01
1.787399419577e+01
1.833650551947e+01
1.826761196714e+01
1.811956328560e+01
1.797464242570e+01
1.806383520316e+01
1.781057635027e+01
1.768499060086e+01
1.761207045392e+01
1.757006403811e+01
1.752635871670e+01
1.737654049239e+01
1.736864175473e+01
1.722161690324e+01
1.717906752518e+01
1.777867990255e+01
1.700543904386e+01
1.699598230415e+01
1.759973913002e+01
1.760911661300e+01
1.743484803787e+01
1.674513584983e+01
1.668760547608e+01
1.662964926427e+01
1.648416783814e+01
1.640826541717e+01
1.727455516138e+01
1.723139640306e+01
1.711214210956e+01
1.621568082692e+01
1.631989548692e+01
1.928599067808e+01
1.915626085796e+01
1.990255132859e+01
2.048914965655e+01
2.040226933683e+01
1.989264160325e+01
1.977022867617e+01
1.966268053103e+01
1.949602300616e+01
1.934895582828e+01
1.971589960220e+01
1.961871596498e+01
1.937541025480e+01
1.924248791358e+01
1.919210657193e+01
1.911025547609e+01
1.909719887565e+01
1.894937509109e+01
1.970186745785e+01
1.978443807437e+01
1.981038816114e+01
1.987466684045e+01
2.014728510879e+01
2.071438528899e+01
1.961061397190e+01
1.945790216145e+01
2.500000000000e+01
1.890213217903e+01
1.899438638273e+01
1.884985429598e+01
1.882657155513e+01
2.500000000000e+01
1.872560280752e+01
2.500000000000e+01
1.857163143647e+01
2.500000000000e+01
1.799357764484e+01
1.791763827530e+01
1.897330659013e+01
1.881291250140e+01
1.814936666262e+01
1.821916669463e+01
1.839648044889e+01
1.859711569711e+01
1.765743661646e+01
1.775449353329e+01
1.747719250678e+01
1.739246362125e+01
1.726341342875e+01
1.723341463657e+01
1.785856587968e+01
1.735956535247e+01
1.741585687268e+01
1.721296995244e+01
1.712982860990e+01
1.759167470751e+01
1.685929383111e+01
1.697142319389e+01
1.677660147357e+01
1.736828055700e+01
1.714289434218e+01
1.695261303124e+01
1.699122960442e+01
1.680536624025e+01
1.684851545345e+01
1.661326174034e+01
1.657693368574e+01
1.635153304867e+01
1.634097359683e+01
1.613690797206e+01
1.612633582143e+01
1.590297654220e+01
1.568381266130e+01
1.554246922957e+01
1.542025213291e+01
1.529276898689e+01
1.600769495473e+01
1.620725753184e+01
1.631028011462e+01
1.643159560270e+01
1.689298581568e+01
1.689962393021e+01
1.673925250074e+01
1.660433515005e+01
1.656309000330e+01
1.641599457177e+01
1.639468085881e+01
1.624581413391e+01
1.615658913150e+01
1.677957158548e+01
1.679014399721e+01
1.705178817594e+01
1.766154019598e+01
1.769526270421e+01
1.787146723681e+01
1.788056664519e+01
1.799892998566e+01
1.870575904089e+01
1.868183472310e+01
1.860403989456e+01
1.857134761504e+01
1.847098776915e+01
1.845804460798e+01
1.833399682698e+01
1.829821679537e+01
1.881232411125e+01
1.856074394463e+01
1.851513226387e+01
1.828030931559e+01
1.824557823362e+01
1.805036280693e+01
1.790809452443e+01
1.802444685751e+01
1.801249464504e+01
1.814708978974e+01
1.816611859953e+01
1.781489153717e+01
1.792562727016e+01
1.769744868920e+01
2.500000000000e+01
1.676415206388e+01
1.691768282026e+01
1.708346209717e+01
1.709380771778e+01
1.728041817090e+01
1.739907957234e+01
1.751056831711e+01
1.637947759517e+01
1.650642804258e+01
1.615270851587e+01
1.611624667654e+01
1.675144691720e+01
1.587716360991e+01
1.588287674285e+01
1.559431531771e+01
1.660777836788e+01
1.666509965447e+01
1.648303078454e+01
1.749863407191e+01
2.500000000000e+01
1.752731133769e+01
2.500000000000e+01
1.675253514966e+01
1.653762466174e+01
1.723276933400e+01
2.500000000000e+01
2.500000000000e+01
1.737522205919e+01
2.500000000000e+01
2.500000000000e+01
1.753116036975e+01
1.807187586827e+01
2.500000000000e+01
2.500000000000e+01
1.560672973437e+01
1.521754977307e+01
1.519348496701e+01
1.528797363117e+01
1.477487364532e+01
1.524857888532e+01
1.460749313080e+01
1.445554769950e+01
1.485812402076e+01
1.493654590965e+01
1.496281427712e+01
1.512608975403e+01
1.524212470851e+01
1.531634169591e+01
1.551006581891e+01
1.552809789712e+01
1.583714161813e+01
1.587662510351e+01
1.608625214054e+01
1.600397748714e+01
1.610934411196e+01
1.593919783155e+01
1.578081181520e+01
1.575464910918e+01
1.558492783393e+01
1.554370092485e+01
1.539855917810e+01
1.538234034508e+01
1.521547189149e+01
1.504878746607e+01
1.498562813708e+01
1.479079508359e+01
1.472610366411e+01
1.444510270085e+01
1.411719453989e+01
1.419130296431e+01
1.389919844159e+01
1.391759476868e+01
1.359321165777e+01
1.340591650664e+01
1.353226308372e+01
1.275636812715e+01
1.298092562679e+01
1.308973898248e+01
1.342522242368e+01
1.373536459509e+01
1.382281603282e+01
1.414833877794e+01
1.422053163051e+01
1.574275446599e+01
1.580082679555e+01
1.646628359551e+01
1.651914267205e+01
1.693068425472e+01
1.472145025560e+01
1.452753069946e+01
1.491868010145e+01
1.511191883812e+01
1.552840714678e+01
1.557056490797e+01
1.729100890913e+01
1.743679261133e+01
1.764078523351e+01
2.500000000000e+01
1.772035151067e+01
2.036775183828e+01
2.235352569677e+01
2.320836029881e+01
2.377971108932e+01
1.850836653050e+01
1.978540836341e+01
1.993519312347e+01
2.084329290190e+01
2.102016968037e+01
2.172038142427e+01
2.194191855999e+01
2.265547346026e+01
2.426477138514e+01
2.445137013076e+01
2.315046238293e+01
2.369013808791e+01
2.456563547699e+01
2.011016674419e+01
2.500000000000e+01
2.026529787362e+01
2.028495330100e+01
2.040234649418e+01
2.058507789696e+01
2.073456710139e+01
2.132454437231e+01
2.160032231359e+01
2.154143708795e+01
2.139934099090e+01
2.130755196913e+01
2.500000000000e+01
2.108603574745e+01
2.097631033908e+01
2.072513488116e+01
2.066361529522e+01
2.060542029380e+01
2.055143638574e+01
2.049264593954e+01
2.043474572072e+01
2.036148078304e+01
2.129247297609e+01
2.158429692584e+01
2.202279843944e+01
2.195870253185e+01
2.191911652811e+01
2.187608077155e+01
2.198235054054e+01
2.192117639297e+01
2.187274164015e+01
2.180696806991e+01
2.174505028424e+01
2.168293810749e+01
2.162824865674e+01
2.158535712318e+01
1.593118844758e+01
1.583632080996e+01
1.561531797869e+01
1.559582642945e+01
1.541357089747e+01
1.527439022710e+01
1.516986554022e+01
1.508566446759e+01
1.496154562018e+01
1.489535420748e+01
1.471133334123e+01
1.467726048433e+01
1.452254430007e+01
1.450815846351e+01
1.433490354191e+01
1.432102869406e+01
1.411437085057e+01
1.412623671313e+01
1.407355511850e+01
1.390177708291e+01
1.384330313740e+01
1.367283266553e+01
1.361468743168e+01
1.349907668115e+01
1.335851936157e+01
1.329850102965e+01
1.316331142134e+01
1.309877555527e+01
1.269543597119e+01
1.200101219958e+01
1.202536501997e+01
1.102767872447e+01
2.500000000000e+01
1.176658051896e+01
1.212718283070e+01
1.226188753292e+01
1.235988640536e+01
1.250388622797e+01
1.257170411154e+01
1.280814852093e+01
1.302426139782e+01
1.303606811689e+01
1.328263830933e+01
1.350940057891e+01
1.365239801076e+01
1.376122568503e+01
1.386012010492e+01
1.401269395511e+01
1.410122824544e+01
1.418576954418e+01
1.426546531438e+01
1.448942616326e+01
1.461938535064e+01
1.480445328624e+01
1.490914087567e+01
1.519161752765e+01
1.449234071359e+01
1.424726699646e+01
1.412556499297e+01
1.382340337980e+01
1.367003379339e+01
1.341993530991e+01
1.327092870292e+01
1.297552503648e+01
1.296322802145e+01
1.271431995402e+01
1.263292142504e+01
1.246802059021e+01
1.235276827661e+01
1.218198931301e+01
1.198330107443e+01
1.196299128216e+01
1.169313252714e+01
1.151388398602e+01
1.148813503088e+01
1.131606549470e+01
1.109186208050e+01
1.090404346049e+01
1.028965501050e+01
9.349664801686e+00
9.331633480626e+00
9.886112486897e+00
9.927078747977e+00
1.030071370910e+01
1.021137689446e+01
1.049286549787e+01
1.053312870957e+01
1.063191428280e+01
1.084734984942e+01
1.097060771402e+01
1.116369968792e+01
1.133359647106e+01
1.148877707164e+01
1.164939651016e+01
1.191585241233e+01
1.205939680584e+01
1.231273811117e+01
1.243129288774e+01
1.265390556206e+01
1.282407087235e+01
1.306406356364e+01
1.336330859366e+01
1.339920277633e+01
1.262910326718e+01
1.277308271673e+01
1.252815545344e+01
1.231019614762e+01
1.219154586036e+01
1.186905442688e+01
1.151208815403e+01
1.146623058814e+01
1.111515697906e+01
1.106013275991e+01
1.070779450213e+01
1.031816179153e+01
9.948263175848e+00
9.905395548672e+00
9.639462130643e+00
9.601029393258e+00
9.299059136901e+00
9.342209599290e+00
8.965670619217e+00
8.928861338952e+00
8.257210638490e+00
8.108979719806e+00
7.333009290972e+00
7.978540555333e+00
7.967011119110e+00
8.314857510396e+00
8.430048341930e+00
8.611739189387e+00
8.728712983253e+00
8.905710048634e+00
9.243057038401e+00
9.386919763517e+00
9.625012212778e+00
9.767879570780e+00
9.969474846855e+00
1.010956203559e+01
1.032866414059e+01
1.054252508392e+01
1.057013769627e+01
1.081749878038e+01
1.090325356596e+01
1.108832503479e+01
1.115932432051e+01
1.137077463207e+01
1.145920426843e+01
1.167372579840e+01
1.173343504961e+01
1.195638767593e+01
1.199094862027e+01
1.219454278907e+01
1.123401022160e+01
1.173017687082e+01
1.093624832466e+01
1.065139116462e+01
1.062587474044e+01
1.032940592199e+01
1.028757107392e+01
1.001397596899e+01
9.966004574636e+00
9.708621848142e+00
9.661443749554e+00
9.399697469729e+00
9.363009554782e+00
9.135045829727e+00
9.028122108987e+00
8.824489536290e+00
8.692403979656e+00
8.505563162446e+00
8.353790976910e+00
8.167477438687e+00
7.973135325779e+00
7.647549987940e+00
7.509113907159e+00
7.362185607046e+00
7.201415498597e+00
6.957451620352e+00
6.811721329738e+00
6.335671409693e+00
6.006476578930e+00
5.364602446173e+00
5.806871840710e+00
5.822840361523e+00
6.214741167764e+00
6.230965372496e+00
6.552499774621e+00