# vtk DataFile Version 3.0
Unstructured Grid from OpenGeoSys
ASCII
DATASET UNSTRUCTURED_GRID
FIELD TimesAndCycles 2
TIME 1 1 double
1.000000000000e+00
CYLCE 1 1 long
1
POINTS 4729 double
-1.765034462000e+05 7.316330775200e+06 0.000000000000e+00
-1.764983145000e+05 7.316342346700e+06 0.000000000000e+00
-1.764785927000e+05 7.316384909600e+06 0.000000000000e+00
-1.764623161000e+05 7.316376211900e+06 0.000000000000e+00
-1.764818931000e+05 7.316334739700e+06 0.000000000000e+00
-1.764808627000e+05 7.316333902500e+06 0.000000000000e+00
-1.764862077000e+05 7.316322375300e+06 0.000000000000e+00
-1.764684983000e+05 7.316328106700e+06 0.000000000000e+00
-1.764496942000e+05 7.316368999400e+06 0.000000000000e+00
-1.764508533000e+05 7.316369965300e+06 0.000000000000e+00
-1.764610282000e+05 7.316323598900e+06 0.000000000000e+00
-1.764665020000e+05 7.316312007300e+06 0.000000000000e+00
-1.764569067000e+05 7.316322504100e+06 0.000000000000e+00
-1.764487282000e+05 7.316317867500e+06 0.000000000000e+00
-1.764567779000e+05 7.316299836100e+06 0.000000000000e+00
-1.764438340000e+05 7.316316193100e+06 0.000000000000e+00
-1.764345607000e+05 7.316310783700e+06 0.000000000000e+00
-1.764417088000e+05 7.316295392700e+06 0.000000000000e+00
-1.764290869000e+05 7.316308272200e+06 0.000000000000e+00
-1.764205220000e+05 7.316303506800e+06 0.000000000000e+00
-1.764274125000e+05 7.316287922500e+06 0.000000000000e+00
-1.764126010000e+05 7.316299900500e+06 0.000000000000e+00
-1.764025550000e+05 7.316294426700e+06 0.000000000000e+00
-1.764006230000e+05 7.316293975900e+06 0.000000000000e+00
-1.764080932000e+05 7.316282641900e+06 0.000000000000e+00
-1.763909634000e+05 7.316288308900e+06 0.000000000000e+00
-1.763967592000e+05 7.316275944500e+06 0.000000000000e+00
-1.763856183000e+05 7.316286312600e+06 0.000000000000e+00
-1.763771178000e+05 7.316282062300e+06 0.000000000000e+00
-1.763831712000e+05 7.316268538800e+06 0.000000000000e+00
-1.763704205000e+05 7.316279615200e+06 0.000000000000e+00
-1.763639163000e+05 7.316276008900e+06 0.000000000000e+00
-1.763715152000e+05 7.316259845100e+06 0.000000000000e+00
-1.763568325000e+05 7.316272789000e+06 0.000000000000e+00
-1.763456273000e+05 7.316266735600e+06 0.000000000000e+00
-1.763451121000e+05 7.316267701600e+06 0.000000000000e+00
-1.763551582000e+05 7.316246772300e+06 0.000000000000e+00
-1.763338425000e+05 7.316262485400e+06 0.000000000000e+00
-1.763389299000e+05 7.316251537700e+06 0.000000000000e+00
-1.764388753000e+05 7.316362881600e+06 0.000000000000e+00
-1.764367502000e+05 7.316361207200e+06 0.000000000000e+00
-1.764261890000e+05 7.316355733400e+06 0.000000000000e+00
-1.764117639000e+05 7.316347168500e+06 0.000000000000e+00
-1.764109267000e+05 7.316347104100e+06 0.000000000000e+00
-1.763955356000e+05 7.316338990000e+06 0.000000000000e+00
-1.763840728000e+05 7.316332421400e+06 0.000000000000e+00
-1.763689393000e+05 7.316324693700e+06 0.000000000000e+00
-1.763542566000e+05 7.316316450700e+06 0.000000000000e+00
-1.763545142000e+05 7.316315549200e+06 0.000000000000e+00
-1.763414414000e+05 7.316308336600e+06 0.000000000000e+00
-1.763399603000e+05 7.316306662300e+06 0.000000000000e+00
-1.763293991000e+05 7.316301832400e+06 0.000000000000e+00
-1.763287551000e+05 7.316300866500e+06 0.000000000000e+00
-1.763164551000e+05 7.316294169100e+06 0.000000000000e+00
-1.763002912000e+05 7.316326368000e+06 0.000000000000e+00
-1.762984881000e+05 7.316329137100e+06 0.000000000000e+00
-1.763124624000e+05 7.316336027700e+06 0.000000000000e+00
-1.763136216000e+05 7.316336800400e+06 0.000000000000e+00
-1.763252132000e+05 7.316342853800e+06 0.000000000000e+00
-1.763396383000e+05 7.316350839200e+06 0.000000000000e+00
-1.763539346000e+05 7.316358180500e+06 0.000000000000e+00
-1.763626283000e+05 7.316363654300e+06 0.000000000000e+00
-1.763621131000e+05 7.316364749100e+06 0.000000000000e+00
-1.763685529000e+05 7.316367582600e+06 0.000000000000e+00
-1.763799513000e+05 7.316373958000e+06 0.000000000000e+00
-1.763809817000e+05 7.316374602000e+06 0.000000000000e+00
-1.763967592000e+05 7.316381556900e+06 0.000000000000e+00
-1.764118283000e+05 7.316389220300e+06 0.000000000000e+00
-1.764234843000e+05 7.316396110800e+06 0.000000000000e+00
-1.764366214000e+05 7.316402743800e+06 0.000000000000e+00
-1.764364282000e+05 7.316403516600e+06 0.000000000000e+00
-1.764474402000e+05 7.316409054800e+06 0.000000000000e+00
-1.764640549000e+05 7.316417362100e+06 0.000000000000e+00
-1.764659224000e+05 7.316419294100e+06 0.000000000000e+00
-1.764835030000e+05 7.316428116600e+06 0.000000000000e+00
-1.764958030000e+05 7.316404997700e+06 0.000000000000e+00
-1.764491146000e+05 7.316446534300e+06 0.000000000000e+00
-1.764341743000e+05 7.316439321800e+06 0.000000000000e+00
-1.764220675000e+05 7.316432882000e+06 0.000000000000e+00
-1.764084796000e+05 7.316427279400e+06 0.000000000000e+00
-1.764063544000e+05 7.316428309700e+06 0.000000000000e+00
-1.764098963000e+05 7.316423351100e+06 0.000000000000e+00
-1.763827204000e+05 7.316413691400e+06 0.000000000000e+00
-1.763650110000e+05 7.316407573600e+06 0.000000000000e+00
-1.763514231000e+05 7.316402486200e+06 0.000000000000e+00
-1.763476236000e+05 7.316400683100e+06 0.000000000000e+00
-1.763324257000e+05 7.316395144900e+06 0.000000000000e+00
-1.763219933000e+05 7.316391281000e+06 0.000000000000e+00
-1.763130420000e+05 7.316388640700e+06 0.000000000000e+00
-1.762986813000e+05 7.316382844900e+06 0.000000000000e+00
-1.762931431000e+05 7.316380913000e+06 0.000000000000e+00
-1.762829038000e+05 7.316376791500e+06 0.000000000000e+00
-1.762744677000e+05 7.316374280000e+06 0.000000000000e+00
-1.762606866000e+05 7.316369836500e+06 0.000000000000e+00
-1.762903096000e+05 7.316321667000e+06 0.000000000000e+00
-1.762883132000e+05 7.316320829800e+06 0.000000000000e+00
-1.762786536000e+05 7.316317996300e+06 0.000000000000e+00
-1.762487730000e+05 7.316406607700e+06 0.000000000000e+00
-1.762616525000e+05 7.316410471600e+06 0.000000000000e+00
-1.762637777000e+05 7.316411501900e+06 0.000000000000e+00
-1.762818091000e+05 7.316417168900e+06 0.000000000000e+00
-1.762829038000e+05 7.316418006100e+06 0.000000000000e+00
-1.763006132000e+05 7.316423737500e+06 0.000000000000e+00
-1.763201902000e+05 7.316430177300e+06 0.000000000000e+00
-1.763260504000e+05 7.316432173600e+06 0.000000000000e+00
-1.763369980000e+05 7.316435973100e+06 0.000000000000e+00
-1.763501995000e+05 7.316440609700e+06 0.000000000000e+00
-1.763498132000e+05 7.316441833300e+06 0.000000000000e+00
-1.763667498000e+05 7.316450205000e+06 0.000000000000e+00
-1.763896754000e+05 7.316462118600e+06 0.000000000000e+00
-1.764026194000e+05 7.316469138000e+06 0.000000000000e+00
-1.764051953000e+05 7.316470039500e+06 0.000000000000e+00
-1.764168513000e+05 7.316475384500e+06 0.000000000000e+00
-1.764283785000e+05 7.316481051600e+06 0.000000000000e+00
-1.763813037000e+05 7.316479699200e+06 0.000000000000e+00
-1.763554158000e+05 7.316476672500e+06 0.000000000000e+00
-1.763373844000e+05 7.316470361500e+06 0.000000000000e+00
-1.763139436000e+05 7.316462183000e+06 0.000000000000e+00
-1.762896656000e+05 7.316453296100e+06 0.000000000000e+00
-1.762724714000e+05 7.316446856300e+06 0.000000000000e+00
-1.762541824000e+05 7.316440223300e+06 0.000000000000e+00
-1.762544400000e+05 7.316439193000e+06 0.000000000000e+00
-1.762439431000e+05 7.316423157900e+06 0.000000000000e+00
-1.762407233000e+05 7.316434427500e+06 0.000000000000e+00
-1.764172135000e+05 7.316499417000e+06 0.000000000000e+00
-1.764308981000e+05 7.316505756200e+06 0.000000000000e+00
-1.764320054000e+05 7.316505927100e+06 0.000000000000e+00
-1.764340661000e+05 7.316499951000e+06 0.000000000000e+00
-1.764394240000e+05 7.316509059500e+06 0.000000000000e+00
-1.764114419000e+05 7.316550150400e+06 0.000000000000e+00
-1.764254806000e+05 7.316555881800e+06 0.000000000000e+00
-1.764368790000e+05 7.316560647300e+06 0.000000000000e+00
-1.764438340000e+05 7.316546157700e+06 0.000000000000e+00
-1.764313408000e+05 7.316541263500e+06 0.000000000000e+00
-1.763988199000e+05 7.316544483400e+06 0.000000000000e+00
-1.763780838000e+05 7.316535660900e+06 0.000000000000e+00
-1.763648179000e+05 7.316530122700e+06 0.000000000000e+00
-1.763748639000e+05 7.316504621200e+06 0.000000000000e+00
-1.763420854000e+05 7.316520849400e+06 0.000000000000e+00
-1.763531618000e+05 7.316493737900e+06 0.000000000000e+00
-1.763351305000e+05 7.316518273500e+06 0.000000000000e+00
-1.763194818000e+05 7.316511382900e+06 0.000000000000e+00
-1.763057651000e+05 7.316505651500e+06 0.000000000000e+00
-1.762974577000e+05 7.316501530100e+06 0.000000000000e+00
-1.762762709000e+05 7.316492900800e+06 0.000000000000e+00
-1.762757557000e+05 7.316492128000e+06 0.000000000000e+00
-1.762586902000e+05 7.316485688200e+06 0.000000000000e+00
-1.762575311000e+05 7.316485752600e+06 0.000000000000e+00
-1.762405945000e+05 7.316478733200e+06 0.000000000000e+00
-1.762362154000e+05 7.316477123300e+06 0.000000000000e+00
-1.762271353000e+05 7.316473066200e+06 0.000000000000e+00
-1.762167029000e+05 7.316469331200e+06 0.000000000000e+00
-1.762011830000e+05 7.316463664100e+06 0.000000000000e+00
-1.761894626000e+05 7.316459542700e+06 0.000000000000e+00
-1.761769694000e+05 7.316454777200e+06 0.000000000000e+00
-1.761606124000e+05 7.316448466300e+06 0.000000000000e+00
-1.761595820000e+05 7.316449754200e+06 0.000000000000e+00
-1.761501799000e+05 7.316444666800e+06 0.000000000000e+00
-1.761488276000e+05 7.316444538000e+06 0.000000000000e+00
-1.761358836000e+05 7.316439643800e+06 0.000000000000e+00
-1.761244852000e+05 7.316435457900e+06 0.000000000000e+00
-1.761213941000e+05 7.316434942700e+06 0.000000000000e+00
-1.761099313000e+05 7.316430692500e+06 0.000000000000e+00
-1.760974381000e+05 7.316426828600e+06 0.000000000000e+00
-1.760962790000e+05 7.316427537000e+06 0.000000000000e+00
-1.760864261000e+05 7.316425154300e+06 0.000000000000e+00
-1.760744481000e+05 7.316421548000e+06 0.000000000000e+00
-1.760725806000e+05 7.316421226000e+06 0.000000000000e+00
-1.763848134000e+05 7.316581826100e+06 0.000000000000e+00
[...]
POINT_DATA 4729
SCALARS T(C) double 1
LOOKUP_TABLE default
2.500000000000e+01
7.349243423961e+00
8.961972261582e+00
7.962474025108e+00
6.575648726324e+00
6.531185767378e+00
2.500000000000e+01
6.067565590369e+00
7.238127126839e+00
7.273775470030e+00
5.816131278546e+00
2.500000000000e+01
5.692027123735e+00
5.455577799654e+00
2.500000000000e+01
5.324250388286e+00
5.085226678599e+00
2.500000000000e+01
4.949872470050e+00
4.757665992884e+00
2.500000000000e+01
4.585448689971e+00
4.387324155312e+00
4.352772489190e+00
2.500000000000e+01
4.180247442956e+00
2.500000000000e+01
4.091797089198e+00
3.956144109975e+00
2.500000000000e+01
3.853791813233e+00
3.617876455451e+00
2.500000000000e+01
3.496045889956e+00
3.880160642553e+00
4.141974603509e+00
2.500000000000e+01
4.450698568957e+00
2.500000000000e+01
6.634066807005e+00
6.304083128994e+00
6.002594505516e+00
5.316181771025e+00
4.990388994309e+00
4.631986972329e+00
4.079450031251e+00
3.528193633415e+00
3.129634095518e+00
3.122398242331e+00
3.010556207379e+00
3.000000000000e+00
3.066933519661e+00
3.078370993295e+00
3.627651856144e+00
3.824466203579e+00
3.609772254029e+00
3.474009053462e+00
3.522728821896e+00
3.372294625307e+00
3.703255400683e+00
4.237727591487e+00
4.393299181021e+00
4.411544875328e+00
4.930138443483e+00
5.357333814055e+00
5.374987950378e+00
6.067177325233e+00
6.921270852842e+00
7.425115929108e+00
8.074317423228e+00
8.090713533582e+00
8.800458184685e+00
9.859004708077e+00
9.923768546163e+00
2.500000000000e+01
2.500000000000e+01
1.055073058532e+01
9.556221054735e+00
8.877976841897e+00
8.256783343457e+00
8.316114259978e+00
8.166492029883e+00
6.836493181539e+00
6.075337308600e+00
5.407079966696e+00
5.059066373215e+00
5.227468039081e+00
4.290952079595e+00
4.427298335151e+00
4.343653633202e+00
4.408899809285e+00
4.539230598853e+00
4.628513419512e+00
4.909022212115e+00
3.887248799825e+00
3.901105410658e+00
3.983816409243e+00
5.978172564916e+00
5.663298956062e+00
5.661252304949e+00
5.349528565915e+00
6.036190392867e+00
5.705102678704e+00
5.990443480824e+00
6.563715068015e+00
6.347164716768e+00
6.809404428040e+00
7.248948754072e+00
8.140145871137e+00
9.235440239642e+00
9.788827836471e+00
9.825122350956e+00
1.047637636515e+01
1.106161887267e+01
2.500000000000e+01
8.738254421133e+00
8.372109379310e+00
7.840592143359e+00
7.200027404046e+00
7.115471375520e+00
7.453093483575e+00
6.699590479230e+00
6.472319619360e+00
6.949134591226e+00
1.135367619690e+01
1.168272832573e+01
2.500000000000e+01
2.500000000000e+01
2.500000000000e+01
1.268793457270e+01
2.500000000000e+01
2.500000000000e+01
2.500000000000e+01
2.500000000000e+01
1.234265497073e+01
1.100577891713e+01
1.128374260137e+01
2.500000000000e+01
1.174578441904e+01
2.500000000000e+01
1.117253421307e+01
9.118477028816e+00
9.316639834641e+00
8.625629770607e+00
9.080719660880e+00
8.019098079573e+00
8.177393881486e+00
8.192371980082e+00
8.436215824645e+00
8.495270725496e+00
8.320360942240e+00
8.397112691320e+00
8.628637032382e+00
8.829441826180e+00
9.055716418028e+00
9.336661969943e+00
9.424523810239e+00
9.487460435110e+00
9.505493900871e+00
9.720260024430e+00
9.900534622196e+00
9.942837839694e+00
1.011515102348e+01
1.030365592079e+01
1.032309998290e+01
1.054377189349e+01
1.088274557113e+01
1.092774069683e+01
1.277858503986e+01
1.348808085751e+01
1.361719872030e+01
1.337702278560e+01
1.342405879186e+01
1.381206077188e+01
2.500000000000e+01
1.473931861609e+01
2.500000000000e+01
2.500000000000e+01
2.500000000000e+01
1.483546678479e+01
1.422063174389e+01
1.458722236622e+01
1.401979428551e+01
1.378301645039e+01
1.438312134333e+01
1.541552245289e+01
1.573445720112e+01
1.512232575842e+01
1.549482228227e+01
1.516617945475e+01
1.297326934077e+01
1.308023197027e+01
2.500000000000e+01
1.089053500629e+01
1.015789479886e+01
1.121148935184e+01
1.152848642437e+01
1.263073728304e+01
1.365256729046e+01
1.340996586365e+01
1.357395342968e+01
1.324774710579e+01
1.392138775589e+01
1.472889089068e+01
1.541741980893e+01
1.493080838758e+01
1.457000185002e+01
1.466331835753e+01
1.468959246183e+01
1.509235707997e+01
1.356947979428e+01
1.584425942744e+01
1.578101364246e+01
1.558281539630e+01
1.584281663667e+01
1.559897535811e+01
1.599771032486e+01
1.577144313937e+01
1.633128068630e+01
1.612851257836e+01
1.633763673677e+01
1.614774340901e+01
1.618696661507e+01
1.653120967390e+01
1.602992486987e+01
2.500000000000e+01
2.500000000000e+01
2.500000000000e+01
2.500000000000e+01
2.500000000000e+01
2.500000000000e+01
2.500000000000e+01
1.729170181731e+01
1.733241038556e+01
1.760361647442e+01
1.848947281895e+01
1.831482282085e+01
1.808763430330e+01
1.810074769904e+01
1.695395891410e+01
1.691023752534e+01
1.708656140846e+01
1.718411097170e+01
1.817561551962e+01
1.935153491584e+01
2.500000000000e+01
1.938718844766e+01
2.500000000000e+01
1.934952557943e+01
2.500000000000e+01
1.936108075144e+01
1.938041707919e+01
2.500000000000e+01
1.955312229578e+01
2.500000000000e+01
1.941230464671e+01
1.957177930043e+01
2.500000000000e+01
1.950102957488e+01
1.959534972791e+01
2.500000000000e+01
1.823163895434e+01
1.713572269902e+01
1.711325239960e+01
1.704744004592e+01
1.823878634446e+01
1.955983367933e+01
1.961962530668e+01
2.500000000000e+01
1.959004983365e+01
1.962369842746e+01
2.500000000000e+01
1.965516179149e+01
2.500000000000e+01
1.026936021940e+01
1.000355608725e+01
1.140091387479e+01
1.274804610291e+01
1.387800715681e+01
1.534776776670e+01
1.606862729376e+01
1.709672895325e+01
1.698704611937e+01
1.823240623455e+01
1.844123471594e+01
1.825399955718e+01
1.826702243315e+01
1.966999581395e+01
2.500000000000e+01
1.961219017208e+01
2.005340229028e+01
1.828246861900e+01
1.701890841484e+01
1.556472657455e+01
1.479842517402e+01
1.288972469371e+01
1.171520412332e+01
1.155816502097e+01
1.032345237295e+01
9.932092800890e+00
1.006791463352e+01
1.027751488829e+01
1.044900016036e+01
1.046068218074e+01
1.064092578544e+01
1.070906151415e+01
1.084234925308e+01
1.100619125312e+01
1.106606608723e+01
1.121314910239e+01
1.133450418705e+01
1.151826123838e+01
1.156730653562e+01
1.184880597143e+01
1.198147988656e+01
1.188150251100e+01
1.190074971068e+01
1.209812409515e+01
1.227639596242e+01
1.239340591579e+01
1.257364962765e+01
1.358181337922e+01
1.342589829130e+01
1.341132927932e+01
1.326747783448e+01
1.304644305869e+01
1.301872574784e+01
1.279156440940e+01
1.254830422524e+01
1.227053911443e+01
1.215112421408e+01
1.202374045271e+01
1.186776802287e+01
1.167198487867e+01
1.300718636906e+01
1.303023753541e+01
1.315045234911e+01
1.337605140714e+01
1.340419359346e+01
1.356174089275e+01
1.376592522372e+01
1.384809708194e+01
1.401449657382e+01
1.408157220678e+01
1.425788947729e+01
1.430440745108e+01
1.450786716200e+01
1.452026510918e+01
1.469844430939e+01
1.471356721515e+01
1.605612222761e+01
1.609884878565e+01
1.588742596478e+01
1.568899866057e+01
1.550166846317e+01
1.548282447449e+01
1.530028534321e+01
1.528530732234e+01
1.507683977332e+01
1.505184393335e+01
1.488860322140e+01
1.487669850895e+01
1.474539931600e+01
1.470779335740e+01
1.507074018934e+01
1.692893461568e+01
1.681111402426e+01
1.681457258552e+01
1.683091420117e+01
1.690707818416e+01
1.705822016025e+01
1.709744594609e+01
1.720663125523e+01
1.725337783549e+01
1.737797350727e+01
1.756804399791e+01
1.770574896527e+01
1.791913316292e+01
1.915409715440e+01
1.900988617956e+01
1.899576150506e+01
1.886304339360e+01
1.875525063011e+01
1.861486241843e+01
1.859355547882e+01
1.844314622047e+01
1.843615152301e+01
1.835476292101e+01
1.835304005467e+01
1.830288932506e+01
1.964246786144e+01
1.974542012285e+01
1.990538673297e+01
1.994065739034e+01
2.021473904209e+01
2.030153489105e+01
2.060549012416e+01
2.062573023506e+01
2.069469260525e+01
2.054509294031e+01
1.968461634245e+01
2.067125574857e+01
2.023500713719e+01
2.039722417510e+01
2.041545055195e+01
2.057161200757e+01
2.058847746541e+01
2.068539277103e+01
2.071054194460e+01
2.083513958023e+01
2.500000000000e+01
2.500000000000e+01
2.500000000000e+01
2.500000000000e+01
2.084692257724e+01
2.085995790584e+01
2.097271698401e+01
2.107776650533e+01
2.123623553341e+01
2.138161694973e+01
2.143633543606e+01
2.158142261887e+01
2.162431066554e+01
2.128886719054e+01
2.147176084518e+01
2.176037948767e+01
2.185610428605e+01
2.500000000000e+01
2.120212428294e+01
2.211322183204e+01
2.456578563047e+01
2.457724951608e+01
2.160049528597e+01
2.326500306591e+01
2.153367087278e+01
2.132316609167e+01
2.456794645969e+01
2.457343283222e+01
2.458514576065e+01
2.387517146390e+01
2.390421628401e+01
2.500000000000e+01
2.175603337795e+01
2.118601158457e+01
2.092690895545e+01
2.177062854068e+01
2.246345138627e+01
2.246832945197e+01
2.249886517689e+01
2.255410746411e+01
2.500000000000e+01
2.193301744016e+01
2.073795976748e+01
2.104436792756e+01
2.149213520176e+01
2.080246807405e+01
2.146741228662e+01
1.983001038663e+01
1.983763531545e+01
2.013247241023e+01
2.014092905527e+01
2.195225862463e+01
2.197426121996e+01
2.500000000000e+01
2.200902169464e+01
2.500000000000e+01
2.206787195822e+01
2.500000000000e+01
2.083314948470e+01
2.126870637518e+01
2.158675369232e+01
2.148433542283e+01
2.152407251731e+01
2.154171927346e+01
2.050457185362e+01
2.045194759894e+01
1.995432247116e+01
1.988542668850e+01
1.936601745463e+01
1.928669128135e+01
1.881439652390e+01
1.872628610889e+01
1.837933700901e+01
1.830552902396e+01
1.806454138375e+01
1.799296998884e+01
1.646474484408e+01
1.655478776225e+01
1.684446827562e+01
1.727444261177e+01
1.730650022368e+01
1.772027913071e+01
1.779927542812e+01
1.825691263539e+01
1.878680206729e+01
1.879070893524e+01
1.937462586544e+01
2.008014310798e+01
2.008535380304e+01
2.042866264943e+01
2.161353537626e+01
2.500000000000e+01
2.044557608285e+01
2.062907290161e+01
2.063640137427e+01
2.170778065089e+01
2.500000000000e+01
2.127121670149e+01
2.500000000000e+01
2.069330849099e+01
1.985028408234e+01
2.102952700131e+01
1.953471993979e+01
1.911358635815e+01
1.864408888427e+01
1.863649954463e+01
1.799797926385e+01
1.797867743696e+01
1.735594492414e+01
1.679553600851e+01
1.664013610841e+01
1.662924232382e+01
1.606165080686e+01
1.605506100679e+01
1.557149378602e+01
1.553459272504e+01
1.513449176119e+01
1.491429037885e+01
1.403714898269e+01
1.414284209037e+01
1.452452257193e+01
1.457183015996e+01
1.501511984295e+01
1.503653309224e+01
1.514655125300e+01
1.557702630358e+01
1.563379079508e+01
1.605691786112e+01
1.608152950697e+01
1.622314605740e+01
1.674530064474e+01
1.683278851691e+01
1.734314349780e+01
1.739097310956e+01
1.789275158264e+01
1.790856245571e+01
1.796430379537e+01
1.853647258171e+01
1.859956507653e+01
1.944241532616e+01
1.833037400610e+01
1.760961429485e+01
1.755746169012e+01
1.748541773398e+01
1.714375285305e+01
1.683707808338e+01
1.680516341652e+01
1.644363884797e+01
1.606067826871e+01
1.571539508974e+01
1.561223353740e+01
1.526498362143e+01
1.521897664058e+01
1.488430500624e+01
1.483822538579e+01
1.445757780909e+01
1.404946638927e+01
1.403126573928e+01
1.366622842708e+01
1.362362309602e+01
1.323846101260e+01
1.320586545563e+01
1.286654795935e+01
1.278444812729e+01
1.270173325893e+01
1.112455572331e+01
1.123188014054e+01
1.142624789515e+01
1.152601069980e+01
1.182879837975e+01
1.191088500033e+01
1.229284911472e+01
1.233168813497e+01
1.278666646539e+01
1.279658874759e+01
1.332833420491e+01
1.545290120661e+01
1.365398183600e+01
1.367058771304e+01
1.401891458191e+01
1.398675515397e+01
1.434652330888e+01
1.442083495879e+01
1.479097765557e+01
1.482248100654e+01
1.523351468711e+01
1.526027542271e+01
1.567786305005e+01
1.580204377545e+01
1.625562276170e+01
1.685511650053e+01
1.554286366560e+01
1.504744491320e+01
1.492256638608e+01
1.493407135459e+01
1.454763004945e+01
1.420230263326e+01
1.386660538718e+01
1.381011903838e+01
1.340515891213e+01
1.335535973984e+01
1.300130492673e+01
1.269233204414e+01
1.268078301184e+01
1.229501622244e+01
1.195232925715e+01
1.156586158176e+01
1.113621744955e+01
1.104057757705e+01
1.067934144491e+01
1.057688172364e+01
1.027283142406e+01
1.016937917020e+01
9.734505559557e+00
9.324867504045e+00
9.164898754105e+00
9.023223387968e+00
8.854060694319e+00
8.586585625532e+00
8.367126136602e+00
8.336969786818e+00
8.152864862204e+00
8.136408945141e+00
7.968598385053e+00
7.948373739749e+00
7.775371365721e+00
7.746653939015e+00
7.528710677618e+00
7.319145863297e+00
7.124109413455e+00
6.957136771279e+00
6.739117535493e+00
6.614653088378e+00
8.073176577660e+00
5.029465829874e+00
5.090227010177e+00
5.155401559546e+00
5.290181549660e+00
5.316531911530e+00
5.471399232992e+00
5.548469417223e+00
5.670489660029e+00
5.754354516473e+00
5.882119868496e+00
6.008944251309e+00
6.080409358175e+00
6.368747170299e+00
6.393687457508e+00
6.664388673826e+00
6.834792828941e+00
6.924975463877e+00
7.082743930000e+00
7.185283373048e+00
7.351762265154e+00
7.565465548013e+00
7.968088410992e+00
8.240305510338e+00
8.490287491794e+00
8.651678819833e+00
9.004117852258e+00
9.203706873642e+00
9.550886843179e+00
9.976606539902e+00
1.045497655811e+01
1.047436214294e+01
1.087501382247e+01
1.095764767341e+01
1.129795364674e+01
1.140687432953e+01
1.167315036195e+01
1.208069813771e+01
1.209812071216e+01
1.252393084031e+01
1.268883951511e+01
1.301610008250e+01
1.314043078231e+01
1.347596454974e+01
1.354519103939e+01
1.369559475516e+01
1.400119147971e+01
1.401007401678e+01
1.373524399686e+01
1.371144109315e+01
1.337465859407e+01
1.311802503883e+01
1.300974364841e+01
1.274503230583e+01
1.268876056171e+01
1.238568564914e+01
1.231065060830e+01
1.198533608084e+01
1.184875499879e+01
1.162882975262e+01
1.149032794849e+01
1.120779412573e+01
1.107260518565e+01
1.076913426712e+01
1.063921385877e+01
1.038189157425e+01
1.018491536459e+01
9.962690727778e+00
9.806249013624e+00
9.756637856434e+00
9.388934509385e+00
8.989039923097e+00
8.696192602088e+00
8.495000243472e+00
8.373576794692e+00
8.150329248516e+00
8.040828071189e+00
7.821888611331e+00
7.768138780013e+00
7.516194555397e+00
7.498802220831e+00
7.245176759699e+00
7.215112012006e+00
6.897500336375e+00
6.846154363684e+00
6.547744889568e+00
6.505466068861e+00
6.194444212856e+00
6.142761465650e+00
5.852408941490e+00
5.754861496392e+00
5.413815007441e+00
5.321190083520e+00
4.933342934024e+00
4.861402120142e+00
4.487151740998e+00
4.360716112096e+00
4.107995910415e+00
5.125567674331e+00
5.429449787665e+00
5.753818934220e+00
5.898748428578e+00
6.220170184498e+00
6.322899357051e+00
6.616052625355e+00
6.773215821704e+00
7.016821860666e+00
7.204802538180e+00
7.388985641521e+00
7.704067052210e+00
7.723323918235e+00
7.979090570140e+00
8.045042587729e+00
8.304731264351e+00
8.402158927562e+00
8.633403760470e+00
8.720503173339e+00
8.879292828352e+00
9.031586071308e+00
9.205208267095e+00
9.370062876321e+00
9.515634773828e+00
9.645955354781e+00
9.834254756204e+00
9.876226110053e+00
1.003198545071e+01
1.012500087500e+01
1.040539954198e+01
1.042385194710e+01
1.060570531891e+01
1.075123345886e+01
1.088765278803e+01
1.100363836745e+01
1.113240504686e+01
1.125712045626e+01
1.147573923710e+01
1.172262116127e+01
1.177765562158e+01
1.199338405076e+01
1.204630958384e+01
1.229714361935e+01
1.231023131148e+01
1.258044195936e+01
1.286636801992e+01
1.289808199088e+01
1.312648730740e+01
1.316866792674e+01
1.329623047972e+01
1.348125166692e+01
1.364144193959e+01
1.386816104000e+01
1.411835243212e+01
1.429569153655e+01
1.482399533726e+01
1.512128311199e+01
1.468297171168e+01
1.456839826433e+01
1.446379641959e+01
1.436382193752e+01
1.426290520141e+01
1.418375406437e+01
1.407212062625e+01
1.397308202619e+01
1.388087691909e+01
1.377957441382e+01
1.367933794826e+01
1.358985925128e+01
1.347348023701e+01
1.337445547785e+01
1.327126862197e+01
1.324933473748e+01
1.309625169731e+01
1.301492196872e+01
1.291084586373e+01
1.283487860032e+01
1.271787930939e+01
1.262587869947e+01
1.248697240410e+01
1.240897620482e+01
1.224369451626e+01
1.219558902063e+01
1.203047057470e+01
1.191612538881e+01
1.177613567121e+01
1.155759260839e+01
1.143031740882e+01
1.126190253414e+01
1.110377650777e+01
1.097045564169e+01
1.079401331531e+01
1.065146241112e+01
1.035023834476e+01
1.031239871576e+01
1.003168611543e+01
1.001210567081e+01
9.690347984285e+00
9.348362393328e+00
9.323436247596e+00
8.972989512355e+00
8.617471519657e+00
8.334964278198e+00
8.124653733929e+00
7.757791149869e+00
7.712665439817e+00
7.381117489311e+00
7.361214644909e+00
7.085444130571e+00
6.677871678775e+00
6.292551800150e+00
7.745579225483e+00
8.142969264095e+00
8.207397288348e+00
8.545612626470e+00
8.603565541517e+00
8.892133254880e+00
9.161913866253e+00
9.267821780152e+00
9.518519637006e+00
9.566935508660e+00
9.673843237063e+00
9.780442153286e+00
9.885679376122e+00
1.013098183243e+01
1.020229005414e+01
1.046206087243e+01
1.053252061031e+01
1.078780216542e+01
1.093132476966e+01
1.114095098609e+01
1.141887769011e+01
1.163815760962e+01
1.165643446020e+01
1.189274503433e+01
1.208319479189e+01
1.213099666924e+01
1.239202162484e+01
1.260867914585e+01
1.271652893317e+01
1.284608194423e+01
1.296043141858e+01
1.319359170038e+01
1.342660804612e+01
1.345463593680e+01
1.368897442880e+01
1.372982079287e+01
1.392865307938e+01
1.398604115575e+01
1.414716390147e+01
1.418459072002e+01
1.435704903727e+01
1.438989609413e+01
1.452201524640e+01
1.461625174767e+01
1.473363806744e+01
1.484245736179e+01
1.492851787770e+01
1.504154165762e+01
1.512172787520e+01
1.525134201555e+01
1.535209634433e+01
1.544259169932e+01
1.553705081566e+01
1.562987538356e+01
1.572931388663e+01
1.580512249338e+01
1.592906595341e+01
1.639091954546e+01
1.688431848130e+01
1.675923614741e+01
1.674894230484e+01
1.658670551966e+01
1.657630363456e+01
1.640120254798e+01
1.624080459267e+01
1.619523004580e+01
1.605849510064e+01
1.602610791647e+01
1.589069839932e+01
1.584974940852e+01
1.569110114409e+01
1.568169381065e+01
1.552338745142e+01
1.548943960704e+01
1.533049444351e+01
1.530456524678e+01
1.513722598877e+01
1.511834942601e+01
1.494708231926e+01
1.493031467174e+01
1.478046167641e+01
1.472845774056e+01
1.453776908111e+01
1.452275637346e+01
1.434581873913e+01
1.432535016040e+01
1.414997644343e+01
1.413338660545e+01
1.391926466141e+01
1.364707340783e+01
1.342323253488e+01
1.332644713919e+01
1.317776202062e+01
1.307846981780e+01
1.292869407571e+01
1.264576826080e+01
1.252495530188e+01
1.238199171026e+01
1.232486147057e+01
1.215327514078e+01
1.206928517495e+01
1.196443264357e+01
1.185807189518e+01
1.177958142190e+01
1.161145275579e+01
1.157899012104e+01
1.117707484682e+01
1.072190813787e+01
1.042116886288e+01
1.001172933628e+01
1.201629273099e+01
1.243688108341e+01
2.500000000000e+01
1.245545651845e+01
1.248345129536e+01
2.500000000000e+01
1.268337003736e+01
2.500000000000e+01
1.262798421486e+01
1.285321621129e+01
1.286769042873e+01
1.311579237554e+01
1.317320912498e+01
1.330607205055e+01
1.342647501563e+01
1.346485739207e+01
1.363831104965e+01
1.365892820766e+01
1.385572010201e+01
1.389110495968e+01
1.407328977518e+01
1.405983541788e+01
1.423829881179e+01
1.425170586531e+01
1.441679147532e+01
1.447056692038e+01
1.462372839505e+01
1.468869667902e+01
1.483816091703e+01
1.497762804811e+01
1.534271189554e+01
1.549245204815e+01
1.553209259632e+01
1.562617762902e+01
1.567000477025e+01
1.574513406287e+01
1.584218609364e+01
1.587332480637e+01
1.599281650885e+01
1.604440211997e+01
1.615049733736e+01
1.631632270277e+01
1.643368452400e+01
1.646267058543e+01
1.657615663123e+01
1.673295619378e+01
1.681174291719e+01
1.688120689409e+01
1.696823814906e+01
1.700928507238e+01
1.706661973370e+01
1.720078862128e+01
1.722459453742e+01
1.731955361919e+01
1.735021511583e+01
1.751742888250e+01
1.752845628555e+01
1.769284269447e+01
1.741415987769e+01
1.845457067567e+01
1.843834000755e+01
1.840477536952e+01
1.839551116152e+01
1.836444126236e+01
1.834498893245e+01
1.826797369165e+01
1.821794452646e+01
1.820071593616e+01
1.812042181389e+01
1.811361995406e+01
1.805935115351e+01
1.805967562296e+01
1.797793732420e+01
1.792962457208e+01
1.791528598199e+01
1.786233870758e+01
1.784430577061e+01
1.776175017153e+01
1.774043229394e+01
1.768086166452e+01
1.766190406425e+01
1.755603497906e+01
1.751325627102e+01
1.751074477299e+01
1.745220524509e+01
1.739584905804e+01
1.738843404498e+01