# vtk DataFile Version 3.0
Unstructured Grid from OpenGeoSys
ASCII
DATASET UNSTRUCTURED_GRID
FIELD TimesAndCycles 2
TIME 1 1 double
1.000000000000e+00
CYLCE 1 1 long
1
POINTS 7341 double
-1.764983145000e+05 7.316342346700e+06 -6.159000000000e+01
-1.764785927000e+05 7.316384909600e+06 -6.159000000000e+01
-1.764623161000e+05 7.316376211900e+06 -6.159000000000e+01
-1.764818931000e+05 7.316334739700e+06 -6.159000000000e+01
-1.764808627000e+05 7.316333902500e+06 -6.159000000000e+01
-1.764862077000e+05 7.316322375300e+06 -6.159000000000e+01
-1.764684983000e+05 7.316328106700e+06 -6.159000000000e+01
-1.764496942000e+05 7.316368999400e+06 -6.159000000000e+01
-1.764508533000e+05 7.316369965300e+06 -6.159000000000e+01
-1.764610282000e+05 7.316323598900e+06 -6.159000000000e+01
-1.764665020000e+05 7.316312007300e+06 -6.159000000000e+01
-1.764569067000e+05 7.316322504100e+06 -6.159000000000e+01
-1.764487282000e+05 7.316317867500e+06 -6.159000000000e+01
-1.764567779000e+05 7.316299836100e+06 -6.159000000000e+01
-1.764438340000e+05 7.316316193100e+06 -6.159000000000e+01
-1.764345607000e+05 7.316310783700e+06 -6.159000000000e+01
-1.764417088000e+05 7.316295392700e+06 -6.159000000000e+01
-1.764290869000e+05 7.316308272200e+06 -6.159000000000e+01
-1.764205220000e+05 7.316303506800e+06 -6.159000000000e+01
-1.764274125000e+05 7.316287922500e+06 -6.159000000000e+01
-1.764126010000e+05 7.316299900500e+06 -6.159000000000e+01
-1.764025550000e+05 7.316294426700e+06 -6.159000000000e+01
-1.764006230000e+05 7.316293975900e+06 -6.159000000000e+01
-1.764080932000e+05 7.316282641900e+06 -6.159000000000e+01
-1.763909634000e+05 7.316288308900e+06 -6.159000000000e+01
-1.763967592000e+05 7.316275944500e+06 -6.159000000000e+01
-1.763856183000e+05 7.316286312600e+06 -6.159000000000e+01
-1.763771178000e+05 7.316282062300e+06 -6.159000000000e+01
-1.763831712000e+05 7.316268538800e+06 -6.159000000000e+01
-1.763704205000e+05 7.316279615200e+06 -6.159000000000e+01
-1.763639163000e+05 7.316276008900e+06 -6.159000000000e+01
-1.763715152000e+05 7.316259845100e+06 -6.159000000000e+01
-1.763568325000e+05 7.316272789000e+06 -6.159000000000e+01
-1.763456273000e+05 7.316266735600e+06 -6.159000000000e+01
-1.763451121000e+05 7.316267701600e+06 -6.159000000000e+01
-1.763551582000e+05 7.316246772300e+06 -6.159000000000e+01
-1.763338425000e+05 7.316262485400e+06 -6.159000000000e+01
-1.763389299000e+05 7.316251537700e+06 -6.159000000000e+01
-1.764388753000e+05 7.316362881600e+06 -6.159000000000e+01
-1.764367502000e+05 7.316361207200e+06 -6.159000000000e+01
-1.764261890000e+05 7.316355733400e+06 -6.159000000000e+01
-1.764117639000e+05 7.316347168500e+06 -6.159000000000e+01
-1.764109267000e+05 7.316347104100e+06 -6.159000000000e+01
-1.763955356000e+05 7.316338990000e+06 -6.159000000000e+01
-1.763840728000e+05 7.316332421400e+06 -6.159000000000e+01
-1.763689393000e+05 7.316324693700e+06 -6.159000000000e+01
-1.763542566000e+05 7.316316450700e+06 -6.159000000000e+01
-1.763545142000e+05 7.316315549200e+06 -6.159000000000e+01
-1.763414414000e+05 7.316308336600e+06 -6.159000000000e+01
-1.763399603000e+05 7.316306662300e+06 -6.159000000000e+01
-1.763293991000e+05 7.316301832400e+06 -6.159000000000e+01
-1.763287551000e+05 7.316300866500e+06 -6.159000000000e+01
-1.763164551000e+05 7.316294169100e+06 -6.159000000000e+01
-1.763002912000e+05 7.316326368000e+06 -6.159000000000e+01
-1.762984881000e+05 7.316329137100e+06 -6.159000000000e+01
-1.763124624000e+05 7.316336027700e+06 -6.159000000000e+01
-1.763136216000e+05 7.316336800400e+06 -6.159000000000e+01
-1.763252132000e+05 7.316342853800e+06 -6.159000000000e+01
-1.763396383000e+05 7.316350839200e+06 -6.159000000000e+01
-1.763539346000e+05 7.316358180500e+06 -6.159000000000e+01
-1.763626283000e+05 7.316363654300e+06 -6.159000000000e+01
-1.763621131000e+05 7.316364749100e+06 -6.159000000000e+01
-1.763685529000e+05 7.316367582600e+06 -6.159000000000e+01
-1.763799513000e+05 7.316373958000e+06 -6.159000000000e+01
-1.763809817000e+05 7.316374602000e+06 -6.159000000000e+01
-1.763967592000e+05 7.316381556900e+06 -6.159000000000e+01
-1.764118283000e+05 7.316389220300e+06 -6.159000000000e+01
-1.764234843000e+05 7.316396110800e+06 -6.159000000000e+01
-1.764366214000e+05 7.316402743800e+06 -6.159000000000e+01
-1.764364282000e+05 7.316403516600e+06 -6.159000000000e+01
-1.764474402000e+05 7.316409054800e+06 -6.159000000000e+01
-1.764640549000e+05 7.316417362100e+06 -6.159000000000e+01
-1.764659224000e+05 7.316419294100e+06 -6.159000000000e+01
-1.764835030000e+05 7.316428116600e+06 -6.159000000000e+01
-1.764958030000e+05 7.316404997700e+06 -6.159000000000e+01
-1.764491146000e+05 7.316446534300e+06 -6.159000000000e+01
-1.764341743000e+05 7.316439321800e+06 -6.159000000000e+01
-1.764220675000e+05 7.316432882000e+06 -6.159000000000e+01
-1.764084796000e+05 7.316427279400e+06 -6.159000000000e+01
-1.764063544000e+05 7.316428309700e+06 -6.159000000000e+01
-1.764098963000e+05 7.316423351100e+06 -6.159000000000e+01
-1.763827204000e+05 7.316413691400e+06 -6.159000000000e+01
-1.763650110000e+05 7.316407573600e+06 -6.159000000000e+01
-1.763514231000e+05 7.316402486200e+06 -6.159000000000e+01
-1.763476236000e+05 7.316400683100e+06 -6.159000000000e+01
-1.763324257000e+05 7.316395144900e+06 -6.159000000000e+01
-1.763219933000e+05 7.316391281000e+06 -6.159000000000e+01
-1.763130420000e+05 7.316388640700e+06 -6.159000000000e+01
-1.762986813000e+05 7.316382844900e+06 -6.159000000000e+01
-1.762931431000e+05 7.316380913000e+06 -6.159000000000e+01
-1.762829038000e+05 7.316376791500e+06 -6.159000000000e+01
-1.762744677000e+05 7.316374280000e+06 -6.159000000000e+01
-1.762606866000e+05 7.316369836500e+06 -6.159000000000e+01
-1.762903096000e+05 7.316321667000e+06 -6.159000000000e+01
-1.762883132000e+05 7.316320829800e+06 -6.159000000000e+01
-1.762786536000e+05 7.316317996300e+06 -6.159000000000e+01
-1.762487730000e+05 7.316406607700e+06 -6.159000000000e+01
-1.762616525000e+05 7.316410471600e+06 -6.159000000000e+01
-1.762637777000e+05 7.316411501900e+06 -6.159000000000e+01
-1.762818091000e+05 7.316417168900e+06 -6.159000000000e+01
-1.762829038000e+05 7.316418006100e+06 -6.159000000000e+01
-1.763006132000e+05 7.316423737500e+06 -6.159000000000e+01
-1.763201902000e+05 7.316430177300e+06 -6.159000000000e+01
-1.763260504000e+05 7.316432173600e+06 -6.159000000000e+01
-1.763369980000e+05 7.316435973100e+06 -6.159000000000e+01
-1.763501995000e+05 7.316440609700e+06 -6.159000000000e+01
-1.763498132000e+05 7.316441833300e+06 -6.159000000000e+01
-1.763667498000e+05 7.316450205000e+06 -6.159000000000e+01
-1.763896754000e+05 7.316462118600e+06 -6.159000000000e+01
-1.764026194000e+05 7.316469138000e+06 -6.159000000000e+01
-1.764051953000e+05 7.316470039500e+06 -6.159000000000e+01
-1.764168513000e+05 7.316475384500e+06 -6.159000000000e+01
-1.764283785000e+05 7.316481051600e+06 -6.159000000000e+01
-1.763813037000e+05 7.316479699200e+06 -6.159000000000e+01
-1.763554158000e+05 7.316476672500e+06 -6.159000000000e+01
-1.763373844000e+05 7.316470361500e+06 -6.159000000000e+01
-1.763139436000e+05 7.316462183000e+06 -6.159000000000e+01
-1.762896656000e+05 7.316453296100e+06 -6.159000000000e+01
-1.762724714000e+05 7.316446856300e+06 -6.159000000000e+01
-1.762541824000e+05 7.316440223300e+06 -6.159000000000e+01
-1.762544400000e+05 7.316439193000e+06 -6.159000000000e+01
-1.762439431000e+05 7.316423157900e+06 -6.159000000000e+01
-1.762407233000e+05 7.316434427500e+06 -6.159000000000e+01
-1.764172135000e+05 7.316499417000e+06 -6.159000000000e+01
-1.764308981000e+05 7.316505756200e+06 -6.159000000000e+01
-1.764320054000e+05 7.316505927100e+06 -6.159000000000e+01
-1.764340661000e+05 7.316499951000e+06 -6.159000000000e+01
-1.764394240000e+05 7.316509059500e+06 -6.159000000000e+01
-1.764114419000e+05 7.316550150400e+06 -6.159000000000e+01
-1.764254806000e+05 7.316555881800e+06 -6.159000000000e+01
-1.764368790000e+05 7.316560647300e+06 -6.159000000000e+01
-1.764438340000e+05 7.316546157700e+06 -6.159000000000e+01
-1.764313408000e+05 7.316541263500e+06 -6.159000000000e+01
-1.763988199000e+05 7.316544483400e+06 -6.159000000000e+01
-1.763780838000e+05 7.316535660900e+06 -6.159000000000e+01
-1.763648179000e+05 7.316530122700e+06 -6.159000000000e+01
-1.763748639000e+05 7.316504621200e+06 -6.159000000000e+01
-1.763420854000e+05 7.316520849400e+06 -6.159000000000e+01
-1.763531618000e+05 7.316493737900e+06 -6.159000000000e+01
-1.763351305000e+05 7.316518273500e+06 -6.159000000000e+01
-1.763194818000e+05 7.316511382900e+06 -6.159000000000e+01
-1.763057651000e+05 7.316505651500e+06 -6.159000000000e+01
-1.762974577000e+05 7.316501530100e+06 -6.159000000000e+01
-1.762762709000e+05 7.316492900800e+06 -6.159000000000e+01
-1.762757557000e+05 7.316492128000e+06 -6.159000000000e+01
-1.762586902000e+05 7.316485688200e+06 -6.159000000000e+01
-1.762575311000e+05 7.316485752600e+06 -6.159000000000e+01
-1.762405945000e+05 7.316478733200e+06 -6.159000000000e+01
-1.762362154000e+05 7.316477123300e+06 -6.159000000000e+01
-1.762271353000e+05 7.316473066200e+06 -6.159000000000e+01
-1.762167029000e+05 7.316469331200e+06 -6.159000000000e+01
-1.762011830000e+05 7.316463664100e+06 -6.159000000000e+01
-1.761894626000e+05 7.316459542700e+06 -6.159000000000e+01
-1.761769694000e+05 7.316454777200e+06 -6.159000000000e+01
-1.761606124000e+05 7.316448466300e+06 -6.159000000000e+01
-1.761595820000e+05 7.316449754200e+06 -6.159000000000e+01
-1.761501799000e+05 7.316444666800e+06 -6.159000000000e+01
-1.761488276000e+05 7.316444538000e+06 -6.159000000000e+01
-1.761358836000e+05 7.316439643800e+06 -6.159000000000e+01
-1.761244852000e+05 7.316435457900e+06 -6.159000000000e+01
-1.761213941000e+05 7.316434942700e+06 -6.159000000000e+01
-1.761099313000e+05 7.316430692500e+06 -6.159000000000e+01
-1.760974381000e+05 7.316426828600e+06 -6.159000000000e+01
-1.760962790000e+05 7.316427537000e+06 -6.159000000000e+01
-1.760864261000e+05 7.316425154300e+06 -6.159000000000e+01
-1.760744481000e+05 7.316421548000e+06 -6.159000000000e+01
[...]
POINT_DATA 7341
SCALARS T(C) double 1
LOOKUP_TABLE default
3.000000000000e+00
3.241689188826e+00
3.494196561733e+00
3.074520843462e+00
3.080900271437e+00
2.500000000000e+01
3.320640984592e+00
3.610235891288e+00
3.600020543314e+00
5.138285933087e+00
2.500000000000e+01
7.251382078076e+00
9.661925806992e+00
2.500000000000e+01
9.631708383613e+00
1.300578362970e+01
2.500000000000e+01
1.296228256589e+01
1.609961400196e+01
2.500000000000e+01
1.603166458438e+01
1.845151117991e+01
1.843659953631e+01
2.500000000000e+01
2.081679445446e+01
2.500000000000e+01
2.078214446462e+01
2.279990969423e+01
2.500000000000e+01
2.277253035241e+01
2.374187993137e+01
2.500000000000e+01
2.372177692980e+01
2.419168503426e+01
2.418956282304e+01
2.500000000000e+01
2.415577751514e+01
2.500000000000e+01
4.027127343707e+00
4.079055294587e+00
4.897626620678e+00
7.918321292674e+00
1.141130102071e+01
1.086053159575e+01
1.320458521645e+01
1.574141307455e+01
1.713674537473e+01
2.028578410810e+01
2.011374079403e+01
2.261329550206e+01
2.254216551845e+01
2.409872629846e+01
2.406134059525e+01
2.397841675515e+01
2.204515525953e+01
2.215570561086e+01
1.831232764827e+01
1.851922985107e+01
1.563081979566e+01
1.331069338890e+01
1.098610688453e+01
1.094220415255e+01
1.009096791184e+01
8.502467660753e+00
8.474851913113e+00
6.601328002752e+00
4.940903236246e+00
4.703262463113e+00
4.238071402371e+00
4.226946383897e+00
4.064023721333e+00
3.646097362488e+00
3.701012720003e+00
2.500000000000e+01
2.500000000000e+01
4.344459520261e+00
4.891510110977e+00
5.276888894659e+00
5.587460602882e+00
5.737971655767e+00
5.677697735424e+00
6.939893215480e+00
8.332505802470e+00
9.723385965616e+00
9.844386879444e+00
1.281219508813e+01
1.393619872085e+01
1.516355531058e+01
1.666045081404e+01
1.691261121004e+01
2.028776233862e+01
2.017072304518e+01
2.195313873558e+01
2.395418470298e+01
2.451955087600e+01
2.436692787614e+01
2.032207833155e+01
1.822435512289e+01
1.797061026097e+01
1.579721007066e+01
1.576137025274e+01
1.412296909408e+01
1.190051554417e+01
1.171037620727e+01
9.384581816274e+00
8.913836846779e+00
8.878280323124e+00
7.878728630281e+00
7.247156748299e+00
6.782282085161e+00
6.716939044697e+00
6.236079750363e+00
5.536760826916e+00
2.500000000000e+01
9.161599633127e+00
1.114371976544e+01
1.253885771311e+01
1.408095158933e+01
1.522961945589e+01
1.730933902200e+01
1.733467983081e+01
2.004772214451e+01
1.951562327849e+01
6.272784127761e+00
6.976997051624e+00
2.500000000000e+01
2.500000000000e+01
2.500000000000e+01
9.068109273277e+00
2.500000000000e+01
2.500000000000e+01
2.500000000000e+01
2.500000000000e+01
8.717915090765e+00
9.705341637995e+00
1.013852530375e+01
2.500000000000e+01
1.085024861597e+01
2.500000000000e+01
1.105843359526e+01
1.155387498137e+01
1.201568303230e+01
1.231109239570e+01
1.383781664837e+01
1.386547695210e+01
1.448224288290e+01
1.701654345345e+01
1.749596530734e+01
1.927548823103e+01
1.947278350432e+01
2.050801877398e+01
2.135671858469e+01
2.190834438077e+01
2.215482872159e+01
2.298291965483e+01
2.295697155488e+01
2.338931164323e+01
2.337905162373e+01
2.374119282659e+01
2.403405374362e+01
2.401886738966e+01
2.425188778306e+01
2.430133676587e+01
2.429409448718e+01
2.438742470757e+01
2.455369743710e+01
2.458299976248e+01
1.005340372820e+01
1.176829077804e+01
1.205538267665e+01
1.155435766853e+01
1.166835363776e+01
1.245444969159e+01
2.500000000000e+01
1.424941389864e+01
2.500000000000e+01
2.500000000000e+01
2.500000000000e+01
1.470506633773e+01
1.337852472066e+01
1.415248665972e+01
1.317777552253e+01
1.244127945685e+01
1.392086530641e+01
1.582649156768e+01
1.641573312182e+01
1.566848543648e+01
1.635815900677e+01
1.599523715568e+01
1.435194549510e+01
1.505229745142e+01
2.500000000000e+01
1.573000231423e+01
1.589942602533e+01
1.633967438138e+01
1.689277717581e+01
1.684089456045e+01
1.610449152015e+01
1.567882807213e+01
1.545234652895e+01
1.491937222166e+01
1.458270347006e+01
1.638866333052e+01
1.642884167838e+01
1.673246984512e+01
1.706639336919e+01
1.722840424795e+01
1.769314883639e+01
1.823938143482e+01
1.832010351532e+01
1.948282939042e+01
1.932605139642e+01
1.904251595184e+01
1.895148996599e+01
1.860231814819e+01
1.850830918009e+01
1.817192436569e+01
1.808778184656e+01
1.777517612283e+01
1.795359425276e+01
1.761264121024e+01
1.768366481405e+01
1.822782306519e+01
1.704073575444e+01
2.500000000000e+01
2.500000000000e+01
2.500000000000e+01
2.500000000000e+01
2.500000000000e+01
2.500000000000e+01
2.500000000000e+01
1.935931332799e+01
1.939968371352e+01
1.977236624138e+01
2.086945783996e+01
2.066657603662e+01
2.046193492000e+01
2.052319360606e+01
1.897851435515e+01
1.883755076068e+01
1.913559783097e+01
1.940730383686e+01
2.071217600616e+01
2.180928079582e+01
2.500000000000e+01
2.184741517768e+01
2.500000000000e+01
2.184303100961e+01
2.500000000000e+01
2.190438640861e+01
2.192649485389e+01
2.500000000000e+01
2.212035357512e+01
2.500000000000e+01
2.202900599334e+01
2.221254491919e+01
2.500000000000e+01
2.223505612597e+01
2.234477891053e+01
2.500000000000e+01
2.100652627188e+01
1.981279440171e+01
1.978046548206e+01
2.014447123611e+01
2.127866778875e+01
2.241836186064e+01
2.248835075263e+01
2.500000000000e+01
2.258560440064e+01
2.262528049013e+01
2.500000000000e+01
2.277647535675e+01
2.500000000000e+01
1.660179079608e+01
1.784572949904e+01
1.761448522966e+01
1.882033635680e+01
1.879262829042e+01
1.983085851077e+01
1.980993180688e+01
2.083411779044e+01
2.046978902221e+01
2.152353475848e+01
2.179504574342e+01
2.181476786410e+01
2.206086689824e+01
2.294562479105e+01
2.500000000000e+01
2.310099055854e+01
2.348805585548e+01
2.227889505774e+01
2.113329558482e+01
2.021034538147e+01
2.023965486898e+01
1.943630894011e+01
1.847234725241e+01
1.849557321691e+01
1.887988787417e+01
1.890662756689e+01
1.981074219015e+01
2.067153895758e+01
2.117621416902e+01
2.119958568160e+01
2.137022808063e+01
2.230285277114e+01
2.238163954350e+01
2.288766505662e+01
2.289827986621e+01
2.331269438442e+01
2.335356873012e+01
2.370043725996e+01
2.370754208051e+01
2.400516196987e+01
2.405566851631e+01
2.401849448344e+01
2.407827195041e+01
2.416457486476e+01
2.415695842169e+01
2.441997616600e+01
2.449371121506e+01
2.430204016420e+01
2.425287361341e+01
2.386416365222e+01
2.378745208042e+01
2.341827905369e+01
2.341001224740e+01
2.292874211680e+01
2.235531034008e+01
2.163213020559e+01
2.153603811404e+01
2.056926908755e+01
2.034826514903e+01
1.936037745389e+01
1.981487061575e+01
2.030481161264e+01
2.090000560634e+01
2.147104471551e+01
2.153865289882e+01
2.206320144629e+01
2.224864014322e+01
2.272695475828e+01
2.285074957568e+01
2.329173207802e+01
2.339494951596e+01
2.370211178669e+01
2.379720255129e+01
2.398534177891e+01
2.405475691926e+01
2.411118752529e+01
2.389713739498e+01
2.407625884548e+01
2.380619095725e+01
2.353523238592e+01
2.322696085138e+01
2.321356331764e+01
2.291376639392e+01
2.264394636245e+01
2.244686929011e+01
2.211445184272e+01
2.189295712663e+01
2.155979830512e+01
2.131415592751e+01
2.081911743962e+01
2.079603086592e+01
2.152326598674e+01
2.189821086982e+01
2.210664166667e+01
2.229934752077e+01
2.265793455643e+01
2.283168200680e+01
2.309931324779e+01
2.321214554425e+01
2.342547910958e+01
2.366097065283e+01
2.388105050358e+01
2.396644066146e+01
2.408897495265e+01
2.405631030831e+01
2.396411402890e+01
2.395540469462e+01
2.380380055605e+01
2.360584723940e+01
2.332511020289e+01
2.329868687251e+01
2.300691600206e+01
2.292578319003e+01
2.272223552436e+01
2.259101521545e+01
2.248663478064e+01
2.325922638469e+01
2.343707460580e+01
2.361895754296e+01
2.365004962003e+01
2.384218034998e+01
2.391596057494e+01
2.407876310638e+01
2.410350685847e+01
2.416370914911e+01
2.417544393313e+01
2.426381001084e+01
2.425992122179e+01
2.365176461237e+01
2.378159892764e+01
2.378553365155e+01
2.390693279380e+01
2.391952432597e+01
2.399106368185e+01
2.400908423574e+01
2.409155810595e+01
2.500000000000e+01
2.500000000000e+01
2.500000000000e+01
2.500000000000e+01
2.427142439695e+01
2.428101004638e+01
2.444971213187e+01
2.498542036376e+01
2.499454224554e+01
2.499374513966e+01
2.499340687485e+01
2.499238674979e+01
2.499161524796e+01
2.499189338710e+01
2.499214456149e+01
2.499063360891e+01
2.498999171678e+01
2.500000000000e+01
2.484213451346e+01
2.498841474985e+01
2.498786282525e+01
2.498855295927e+01
2.498503256268e+01
2.498950980730e+01
2.498227950150e+01
2.485621936223e+01
2.498776673890e+01
2.498812986624e+01
2.498888427961e+01
2.498997310170e+01
2.499066540559e+01
2.500000000000e+01
2.477160569897e+01
2.465433091143e+01
2.442554663504e+01
2.477517160247e+01
2.486248200293e+01
2.486341827644e+01
2.486917625791e+01
2.487819957108e+01
2.500000000000e+01
2.483932957257e+01
2.442954623547e+01
2.457565065087e+01
2.469543347777e+01
2.463224846941e+01
2.478061921287e+01
2.437870111985e+01
2.438232762434e+01
2.450778277896e+01
2.451128278568e+01
2.484379564359e+01
2.484839457795e+01
2.500000000000e+01
2.485545097280e+01
2.500000000000e+01
2.486561133434e+01
2.500000000000e+01
2.464307399020e+01
2.474342658830e+01
2.480333062793e+01
2.484574370686e+01
2.485331530332e+01
2.485708575019e+01
2.480952889892e+01
2.479884801426e+01
2.476318487713e+01
2.474760172320e+01
2.468929708493e+01
2.466834242199e+01
2.458231459005e+01
2.455392986659e+01
2.442285033576e+01
2.439204520052e+01
2.417163370551e+01
2.413060207835e+01
2.421441971562e+01
2.425382322303e+01
2.435635219497e+01
2.447622305290e+01
2.448660375385e+01
2.460471039956e+01
2.462572539337e+01
2.472100606660e+01
2.477629875847e+01
2.477704863055e+01
2.482230463896e+01
2.486132438803e+01
2.486220172063e+01
2.488116322256e+01
2.487296122868e+01
2.500000000000e+01
2.488376325129e+01
2.489624749642e+01
2.489726357705e+01
2.489090143461e+01
2.500000000000e+01
2.490411683738e+01
2.500000000000e+01
2.490476285208e+01
2.492653743803e+01
2.492373557175e+01
2.491701003567e+01
2.490093577011e+01
2.488132484149e+01
2.488046994765e+01
2.485428290597e+01
2.485194313771e+01
2.482556781566e+01
2.471956984751e+01
2.465993118586e+01
2.465758464586e+01
2.454333293444e+01
2.454161686409e+01
2.442659540460e+01
2.441548467356e+01
2.438150309913e+01
2.421201718751e+01
2.437916666899e+01
2.444127204241e+01
2.454926558989e+01
2.456070325718e+01
2.463295288650e+01
2.463732377841e+01
2.468297274646e+01
2.473368280343e+01
2.474304503556e+01
2.477761267231e+01
2.478116446964e+01
2.483497664639e+01
2.488256205484e+01
2.489042984324e+01
2.490375856507e+01
2.490758070999e+01
2.491761723062e+01
2.491881361261e+01
2.492311020786e+01
2.493110988796e+01
2.493717432327e+01
2.493614266979e+01
2.495093808009e+01
2.495691289470e+01
2.495741136465e+01
2.495331253634e+01
2.494939364004e+01
2.494723221500e+01
2.494549861752e+01
2.493652961840e+01
2.492548354711e+01
2.491726095408e+01
2.488324375972e+01
2.485287621280e+01
2.484833850101e+01
2.482541257485e+01
2.482028039637e+01
2.477655656513e+01
2.474799289031e+01
2.474258272666e+01
2.470529519914e+01
2.468728246088e+01
2.463609397721e+01
2.460017067867e+01
2.459193118267e+01
2.455237895549e+01
2.454615849767e+01
2.465597602505e+01
2.469322065246e+01
2.468947788884e+01
2.473027989365e+01
2.472486811320e+01
2.477311473707e+01
2.477932125493e+01
2.480271862902e+01
2.481224129682e+01
2.482495422531e+01
2.484007460618e+01
2.482913784224e+01
2.487130447623e+01
2.487412665113e+01
2.489116353428e+01
2.489042011368e+01
2.491193007881e+01
2.493308163018e+01
2.493692747259e+01
2.494495094191e+01
2.495117748834e+01
2.495309939222e+01
2.495932389050e+01
2.496405768869e+01
2.496368359095e+01
2.496726733760e+01
2.497748522981e+01
2.497812293659e+01
2.497483067126e+01
2.497460377625e+01
2.497065386773e+01
2.496649046941e+01
2.496574017803e+01
2.496034604545e+01
2.495751949416e+01
2.495114850431e+01
2.494026167453e+01
2.492702615726e+01
2.491882302855e+01
2.491025369240e+01
2.488744852417e+01
2.487470704016e+01
2.487717748486e+01
2.485801710533e+01
2.486140364092e+01
2.483492697900e+01
2.483694640430e+01
2.479956686937e+01
2.478965861741e+01
2.476294992175e+01
2.476701102460e+01
2.470423996540e+01
2.462979621624e+01
2.454715879889e+01
2.448763991743e+01
2.449230671544e+01
2.446835379324e+01
2.425061220309e+01
2.423887545379e+01
2.401860474787e+01
2.400493660386e+01
2.374062209182e+01
2.356969294047e+01
2.308065989557e+01
2.275865198046e+01
2.232603124950e+01
2.184796214833e+01
2.132295031676e+01
2.054856333768e+01
2.291096654903e+01
2.287356792169e+01
2.327042146419e+01
2.320522490322e+01
2.359738988661e+01
2.353673653385e+01
2.352764601558e+01
2.378321415643e+01
2.376257364739e+01
2.407698125071e+01
2.405383084644e+01
2.435376627219e+01
2.431733659802e+01
2.455042926038e+01
2.452536891516e+01
2.463154527776e+01
2.462883428643e+01
2.466701570257e+01
2.466293653500e+01
2.472386019492e+01
2.471597365363e+01
2.477764080151e+01
2.484460355978e+01
2.484252858114e+01
2.486615562442e+01
2.486300317277e+01
2.489343730996e+01
2.489069034761e+01
2.490421636777e+01
2.490769305536e+01
2.492289961588e+01
2.491838567195e+01
2.493820582334e+01
2.493630087429e+01
2.494973830513e+01
2.494856770210e+01
2.495567095789e+01
2.496087570120e+01
2.496966677032e+01
2.497430202182e+01
2.497408572013e+01
2.497904240512e+01
2.497802135730e+01
2.498050349711e+01
2.498066650551e+01
2.498639142496e+01
2.498967634093e+01
2.498712053264e+01
2.498641527539e+01
2.498640500345e+01
2.498669189330e+01
2.498398218665e+01
2.498469734864e+01
2.498091747810e+01
2.498167618046e+01
2.497618882337e+01
2.497717464993e+01
2.497051065199e+01
2.497080001219e+01
2.496347333820e+01
2.496458307297e+01
2.495494078130e+01
2.495626555089e+01
2.494490796469e+01
2.494564790293e+01
2.493764516476e+01
2.493877093077e+01
2.494230719726e+01
2.491798483151e+01
2.490977212335e+01
2.488378528446e+01
2.488675327022e+01
2.489368180209e+01
2.484730753393e+01
2.485273282105e+01
2.481294018343e+01
2.481992686643e+01
2.478580413066e+01
2.479489204411e+01
2.474042714045e+01
2.475019207201e+01
2.472531066292e+01
2.473748008164e+01
2.467404996719e+01
2.468494023344e+01
2.458129512791e+01
2.459457166397e+01
2.447406870055e+01
2.448111104811e+01
2.435844829477e+01
2.437130812097e+01
2.428894561751e+01
2.434683444671e+01
2.422451742233e+01
2.429580925237e+01
2.410065999385e+01
2.420369986882e+01
2.497458697998e+01
2.495402121854e+01
2.493236087009e+01
2.491268846033e+01
2.488648665475e+01
2.488378973063e+01
2.486256269521e+01
2.485727831635e+01
2.484627655240e+01
2.484821001673e+01
2.484761781513e+01
2.485926800638e+01
2.487045612827e+01
2.486708141217e+01
2.488086067473e+01
2.487720100244e+01
2.488827640105e+01
2.488516544667e+01
2.490109555769e+01
2.489980864591e+01
2.491422265503e+01
2.491251922275e+01
2.492755162927e+01
2.492626681808e+01
2.494094298751e+01
2.493891853725e+01
2.494681537621e+01
2.494392178610e+01
2.494350320154e+01
2.495102641232e+01
2.496950237011e+01
2.496725066904e+01
2.496551414845e+01
2.496530228067e+01
2.496752708808e+01
2.496712087710e+01
2.497264759933e+01
2.497126640449e+01
2.497491610875e+01
2.497984599511e+01
2.497881660309e+01
2.498336096410e+01
2.498221188923e+01
2.498770032965e+01
2.498673370432e+01
2.498820573296e+01
2.499056218769e+01
2.499007124639e+01
2.499247971535e+01
2.499188765208e+01
2.499180852629e+01
2.499241719705e+01
2.499223415615e+01
2.499311234956e+01
2.499491515829e+01
2.499666434151e+01
2.499760322178e+01
2.499616175104e+01
2.499629348375e+01
2.499573938864e+01
2.499587453855e+01
2.499566298892e+01
2.499570752039e+01
2.499506675106e+01
2.499517711039e+01
2.499388047214e+01
2.499403886441e+01
2.499350315725e+01
2.499361333940e+01
2.499241770354e+01
2.499256410382e+01
2.499292881419e+01
2.499079721559e+01
2.499120775878e+01
2.498851465748e+01
2.498875172945e+01
2.498745420088e+01
2.498773807174e+01
2.498604027088e+01
2.498644963869e+01
2.498475130215e+01
2.498528579775e+01
2.498421424191e+01
2.498469692259e+01
2.498422566615e+01
2.498446132797e+01
2.498084947378e+01
2.498095719310e+01
2.497856677455e+01
2.497886112911e+01
2.497575296505e+01
2.497620245365e+01
2.497160524273e+01
2.497328972843e+01
2.496685411022e+01
2.496841549088e+01
2.496277252991e+01
2.496022294649e+01
2.496229057886e+01
2.495974579709e+01
2.496228729450e+01
2.496404310507e+01
2.496702883813e+01
2.497195692640e+01
2.497747786026e+01
2.497774202494e+01
2.498281856691e+01
2.498290227450e+01
2.498803160805e+01
2.499262000206e+01
2.499648576245e+01
2.499945088964e+01
2.499870566085e+01
2.499868794208e+01
2.499770299256e+01
2.499767283317e+01
2.499635057557e+01
2.499611117792e+01
2.499489694659e+01
2.499466417229e+01
2.499458833103e+01
2.499379133317e+01
2.499287714130e+01
2.499266315657e+01
2.499165315505e+01
2.499147371880e+01
2.499048477635e+01
2.499029499515e+01
2.498923877146e+01
2.498958015222e+01
2.498917648261e+01
2.498924587161e+01
2.498952077715e+01
2.499137505964e+01
2.499087732498e+01
2.499146858135e+01
2.499311342798e+01
2.499261237920e+01
2.499338253572e+01
2.499333351138e+01
2.499379715413e+01
2.499374261199e+01
2.499420681688e+01
2.499462784645e+01
2.499554763710e+01
2.499525021922e+01
2.499607363020e+01
2.499587501613e+01
2.499660295130e+01
2.499647432344e+01
2.499693828247e+01
2.499679807962e+01
2.499704530120e+01
2.499695609176e+01
2.499727144668e+01
2.499720584016e+01
2.499747923400e+01
2.499745253321e+01
2.499779065608e+01
2.499776816425e+01
2.499801046888e+01
2.499795914654e+01
2.499817160472e+01
2.499812506370e+01
2.499837935708e+01
2.499832595167e+01
2.499870241529e+01
2.499858163767e+01
2.499905979855e+01
2.499942972590e+01
2.499948511529e+01
2.499940827931e+01
2.499946039319e+01
2.499931669270e+01
2.499925325361e+01
2.499931161026e+01
2.499915748946e+01
2.499920688587e+01
2.499906702795e+01
2.499911678893e+01
2.499896116935e+01
2.499902823755e+01
2.499888491497e+01
2.499895522955e+01
2.499882684031e+01
2.499890017384e+01
2.499875871368e+01
2.499883814683e+01
2.499863566679e+01
2.499872314107e+01
2.499849450959e+01
2.499857447763e+01
2.499839203882e+01
2.499850612689e+01
2.499819256017e+01
2.499830861032e+01
2.499801803355e+01
2.499814976604e+01
2.499778980919e+01
2.499768352279e+01
2.499760189622e+01
2.499743782244e+01
2.499746322241e+01
2.499734019723e+01
2.499735944527e+01
2.499720171996e+01
2.499739378578e+01
2.499769833042e+01
2.499781014308e+01
2.499798720734e+01
2.499809816733e+01
2.499835750326e+01
2.499841153001e+01
2.499867648853e+01
2.499870811029e+01
2.499896591465e+01
2.499897580946e+01
2.499924570164e+01
2.499948905062e+01
2.499966279353e+01
2.499980423450e+01
2.499991999385e+01
2.499991218389e+01
2.500000000000e+01
2.499990522300e+01
2.499990453106e+01
2.500000000000e+01
2.499989939155e+01
2.500000000000e+01
2.499989685986e+01
2.499988963617e+01
2.499983505353e+01
2.499982208624e+01
2.499978117119e+01
2.499977151920e+01
2.499973000983e+01
2.499972636886e+01
2.499966978595e+01
2.499966724532e+01
2.499960681065e+01
2.499960131902e+01
2.499953663272e+01
2.499948731248e+01
2.499945996227e+01
2.499946930082e+01
2.499940766760e+01
2.499942792989e+01
2.499939201312e+01
2.499940510142e+01
2.499937567633e+01
2.499938430013e+01
2.499949638228e+01
2.499953720995e+01
2.499952993927e+01
2.499954567176e+01
2.499953849065e+01
2.499957301125e+01
2.499954960148e+01
2.499954337548e+01
2.499956419374e+01
2.499961766153e+01
2.499959665170e+01
2.499961842987e+01
2.499962989182e+01
2.499962720933e+01
2.499964537157e+01
2.499966740373e+01
2.499970172612e+01
2.499969348180e+01
2.499971451436e+01
2.499971219063e+01
2.499974194481e+01
2.499972086721e+01
2.499974317651e+01
2.499973064869e+01
2.499974607764e+01
2.499971900562e+01
2.499972813543e+01
2.499969016983e+01
2.499957693489e+01
2.499985790496e+01
2.499987220655e+01
2.499988434825e+01
2.499988521508e+01
2.499989720979e+01
2.499989476516e+01
2.499990780008e+01
2.499991893724e+01
2.499990936289e+01
2.499991966767e+01
2.499991551874e+01
2.499991131466e+01
2.499991278488e+01
2.499991158268e+01
2.499991701115e+01
2.499990821841e+01
2.499991355350e+01
2.499990830025e+01
2.499991682202e+01
2.499991313336e+01
2.499992127801e+01
2.499991072138e+01
2.499992250215e+01
2.499992689459e+01
2.499993883887e+01
2.499993849019e+01
2.499995603932e+01
2.499995626043e+01
2.499995918446e+01