# vtk DataFile Version 3.0
Unstructured Grid from OpenGeoSys
ASCII
DATASET UNSTRUCTURED_GRID
FIELD TimesAndCycles 2
TIME 1 1 double
1.000000000000e+00
CYLCE 1 1 long
1
POINTS 7341 double
-1.764983145000e+05 7.316342346700e+06 -6.159000000000e+01
-1.764785927000e+05 7.316384909600e+06 -6.159000000000e+01
-1.764623161000e+05 7.316376211900e+06 -6.159000000000e+01
-1.764818931000e+05 7.316334739700e+06 -6.159000000000e+01
-1.764808627000e+05 7.316333902500e+06 -6.159000000000e+01
-1.764862077000e+05 7.316322375300e+06 -6.159000000000e+01
-1.764684983000e+05 7.316328106700e+06 -6.159000000000e+01
-1.764496942000e+05 7.316368999400e+06 -6.159000000000e+01
-1.764508533000e+05 7.316369965300e+06 -6.159000000000e+01
-1.764610282000e+05 7.316323598900e+06 -6.159000000000e+01
-1.764665020000e+05 7.316312007300e+06 -6.159000000000e+01
-1.764569067000e+05 7.316322504100e+06 -6.159000000000e+01
-1.764487282000e+05 7.316317867500e+06 -6.159000000000e+01
-1.764567779000e+05 7.316299836100e+06 -6.159000000000e+01
-1.764438340000e+05 7.316316193100e+06 -6.159000000000e+01
-1.764345607000e+05 7.316310783700e+06 -6.159000000000e+01
-1.764417088000e+05 7.316295392700e+06 -6.159000000000e+01
-1.764290869000e+05 7.316308272200e+06 -6.159000000000e+01
-1.764205220000e+05 7.316303506800e+06 -6.159000000000e+01
-1.764274125000e+05 7.316287922500e+06 -6.159000000000e+01
-1.764126010000e+05 7.316299900500e+06 -6.159000000000e+01
-1.764025550000e+05 7.316294426700e+06 -6.159000000000e+01
-1.764006230000e+05 7.316293975900e+06 -6.159000000000e+01
-1.764080932000e+05 7.316282641900e+06 -6.159000000000e+01
-1.763909634000e+05 7.316288308900e+06 -6.159000000000e+01
-1.763967592000e+05 7.316275944500e+06 -6.159000000000e+01
-1.763856183000e+05 7.316286312600e+06 -6.159000000000e+01
-1.763771178000e+05 7.316282062300e+06 -6.159000000000e+01
-1.763831712000e+05 7.316268538800e+06 -6.159000000000e+01
-1.763704205000e+05 7.316279615200e+06 -6.159000000000e+01
-1.763639163000e+05 7.316276008900e+06 -6.159000000000e+01
-1.763715152000e+05 7.316259845100e+06 -6.159000000000e+01
-1.763568325000e+05 7.316272789000e+06 -6.159000000000e+01
-1.763456273000e+05 7.316266735600e+06 -6.159000000000e+01
-1.763451121000e+05 7.316267701600e+06 -6.159000000000e+01
-1.763551582000e+05 7.316246772300e+06 -6.159000000000e+01
-1.763338425000e+05 7.316262485400e+06 -6.159000000000e+01
-1.763389299000e+05 7.316251537700e+06 -6.159000000000e+01
-1.764388753000e+05 7.316362881600e+06 -6.159000000000e+01
-1.764367502000e+05 7.316361207200e+06 -6.159000000000e+01
-1.764261890000e+05 7.316355733400e+06 -6.159000000000e+01
-1.764117639000e+05 7.316347168500e+06 -6.159000000000e+01
-1.764109267000e+05 7.316347104100e+06 -6.159000000000e+01
-1.763955356000e+05 7.316338990000e+06 -6.159000000000e+01
-1.763840728000e+05 7.316332421400e+06 -6.159000000000e+01
-1.763689393000e+05 7.316324693700e+06 -6.159000000000e+01
-1.763542566000e+05 7.316316450700e+06 -6.159000000000e+01
-1.763545142000e+05 7.316315549200e+06 -6.159000000000e+01
-1.763414414000e+05 7.316308336600e+06 -6.159000000000e+01
-1.763399603000e+05 7.316306662300e+06 -6.159000000000e+01
-1.763293991000e+05 7.316301832400e+06 -6.159000000000e+01
-1.763287551000e+05 7.316300866500e+06 -6.159000000000e+01
-1.763164551000e+05 7.316294169100e+06 -6.159000000000e+01
-1.763002912000e+05 7.316326368000e+06 -6.159000000000e+01
-1.762984881000e+05 7.316329137100e+06 -6.159000000000e+01
-1.763124624000e+05 7.316336027700e+06 -6.159000000000e+01
-1.763136216000e+05 7.316336800400e+06 -6.159000000000e+01
-1.763252132000e+05 7.316342853800e+06 -6.159000000000e+01
-1.763396383000e+05 7.316350839200e+06 -6.159000000000e+01
-1.763539346000e+05 7.316358180500e+06 -6.159000000000e+01
-1.763626283000e+05 7.316363654300e+06 -6.159000000000e+01
-1.763621131000e+05 7.316364749100e+06 -6.159000000000e+01
-1.763685529000e+05 7.316367582600e+06 -6.159000000000e+01
-1.763799513000e+05 7.316373958000e+06 -6.159000000000e+01
-1.763809817000e+05 7.316374602000e+06 -6.159000000000e+01
-1.763967592000e+05 7.316381556900e+06 -6.159000000000e+01
-1.764118283000e+05 7.316389220300e+06 -6.159000000000e+01
-1.764234843000e+05 7.316396110800e+06 -6.159000000000e+01
-1.764366214000e+05 7.316402743800e+06 -6.159000000000e+01
-1.764364282000e+05 7.316403516600e+06 -6.159000000000e+01
-1.764474402000e+05 7.316409054800e+06 -6.159000000000e+01
-1.764640549000e+05 7.316417362100e+06 -6.159000000000e+01
-1.764659224000e+05 7.316419294100e+06 -6.159000000000e+01
-1.764835030000e+05 7.316428116600e+06 -6.159000000000e+01
-1.764958030000e+05 7.316404997700e+06 -6.159000000000e+01
-1.764491146000e+05 7.316446534300e+06 -6.159000000000e+01
-1.764341743000e+05 7.316439321800e+06 -6.159000000000e+01
-1.764220675000e+05 7.316432882000e+06 -6.159000000000e+01
-1.764084796000e+05 7.316427279400e+06 -6.159000000000e+01
-1.764063544000e+05 7.316428309700e+06 -6.159000000000e+01
-1.764098963000e+05 7.316423351100e+06 -6.159000000000e+01
-1.763827204000e+05 7.316413691400e+06 -6.159000000000e+01
-1.763650110000e+05 7.316407573600e+06 -6.159000000000e+01
-1.763514231000e+05 7.316402486200e+06 -6.159000000000e+01
-1.763476236000e+05 7.316400683100e+06 -6.159000000000e+01
-1.763324257000e+05 7.316395144900e+06 -6.159000000000e+01
-1.763219933000e+05 7.316391281000e+06 -6.159000000000e+01
-1.763130420000e+05 7.316388640700e+06 -6.159000000000e+01
-1.762986813000e+05 7.316382844900e+06 -6.159000000000e+01
-1.762931431000e+05 7.316380913000e+06 -6.159000000000e+01
-1.762829038000e+05 7.316376791500e+06 -6.159000000000e+01
-1.762744677000e+05 7.316374280000e+06 -6.159000000000e+01
-1.762606866000e+05 7.316369836500e+06 -6.159000000000e+01
-1.762903096000e+05 7.316321667000e+06 -6.159000000000e+01
-1.762883132000e+05 7.316320829800e+06 -6.159000000000e+01
-1.762786536000e+05 7.316317996300e+06 -6.159000000000e+01
-1.762487730000e+05 7.316406607700e+06 -6.159000000000e+01
-1.762616525000e+05 7.316410471600e+06 -6.159000000000e+01
-1.762637777000e+05 7.316411501900e+06 -6.159000000000e+01
-1.762818091000e+05 7.316417168900e+06 -6.159000000000e+01
-1.762829038000e+05 7.316418006100e+06 -6.159000000000e+01
-1.763006132000e+05 7.316423737500e+06 -6.159000000000e+01
-1.763201902000e+05 7.316430177300e+06 -6.159000000000e+01
-1.763260504000e+05 7.316432173600e+06 -6.159000000000e+01
-1.763369980000e+05 7.316435973100e+06 -6.159000000000e+01
-1.763501995000e+05 7.316440609700e+06 -6.159000000000e+01
-1.763498132000e+05 7.316441833300e+06 -6.159000000000e+01
-1.763667498000e+05 7.316450205000e+06 -6.159000000000e+01
-1.763896754000e+05 7.316462118600e+06 -6.159000000000e+01
-1.764026194000e+05 7.316469138000e+06 -6.159000000000e+01
-1.764051953000e+05 7.316470039500e+06 -6.159000000000e+01
-1.764168513000e+05 7.316475384500e+06 -6.159000000000e+01
-1.764283785000e+05 7.316481051600e+06 -6.159000000000e+01
-1.763813037000e+05 7.316479699200e+06 -6.159000000000e+01
-1.763554158000e+05 7.316476672500e+06 -6.159000000000e+01
-1.763373844000e+05 7.316470361500e+06 -6.159000000000e+01
-1.763139436000e+05 7.316462183000e+06 -6.159000000000e+01
-1.762896656000e+05 7.316453296100e+06 -6.159000000000e+01
-1.762724714000e+05 7.316446856300e+06 -6.159000000000e+01
-1.762541824000e+05 7.316440223300e+06 -6.159000000000e+01
-1.762544400000e+05 7.316439193000e+06 -6.159000000000e+01
-1.762439431000e+05 7.316423157900e+06 -6.159000000000e+01
-1.762407233000e+05 7.316434427500e+06 -6.159000000000e+01
-1.764172135000e+05 7.316499417000e+06 -6.159000000000e+01
-1.764308981000e+05 7.316505756200e+06 -6.159000000000e+01
-1.764320054000e+05 7.316505927100e+06 -6.159000000000e+01
-1.764340661000e+05 7.316499951000e+06 -6.159000000000e+01
-1.764394240000e+05 7.316509059500e+06 -6.159000000000e+01
-1.764114419000e+05 7.316550150400e+06 -6.159000000000e+01
-1.764254806000e+05 7.316555881800e+06 -6.159000000000e+01
-1.764368790000e+05 7.316560647300e+06 -6.159000000000e+01
-1.764438340000e+05 7.316546157700e+06 -6.159000000000e+01
-1.764313408000e+05 7.316541263500e+06 -6.159000000000e+01
-1.763988199000e+05 7.316544483400e+06 -6.159000000000e+01
-1.763780838000e+05 7.316535660900e+06 -6.159000000000e+01
-1.763648179000e+05 7.316530122700e+06 -6.159000000000e+01
-1.763748639000e+05 7.316504621200e+06 -6.159000000000e+01
-1.763420854000e+05 7.316520849400e+06 -6.159000000000e+01
-1.763531618000e+05 7.316493737900e+06 -6.159000000000e+01
-1.763351305000e+05 7.316518273500e+06 -6.159000000000e+01
-1.763194818000e+05 7.316511382900e+06 -6.159000000000e+01
-1.763057651000e+05 7.316505651500e+06 -6.159000000000e+01
-1.762974577000e+05 7.316501530100e+06 -6.159000000000e+01
-1.762762709000e+05 7.316492900800e+06 -6.159000000000e+01
-1.762757557000e+05 7.316492128000e+06 -6.159000000000e+01
-1.762586902000e+05 7.316485688200e+06 -6.159000000000e+01
-1.762575311000e+05 7.316485752600e+06 -6.159000000000e+01
-1.762405945000e+05 7.316478733200e+06 -6.159000000000e+01
-1.762362154000e+05 7.316477123300e+06 -6.159000000000e+01
-1.762271353000e+05 7.316473066200e+06 -6.159000000000e+01
-1.762167029000e+05 7.316469331200e+06 -6.159000000000e+01
-1.762011830000e+05 7.316463664100e+06 -6.159000000000e+01
-1.761894626000e+05 7.316459542700e+06 -6.159000000000e+01
-1.761769694000e+05 7.316454777200e+06 -6.159000000000e+01
-1.761606124000e+05 7.316448466300e+06 -6.159000000000e+01
-1.761595820000e+05 7.316449754200e+06 -6.159000000000e+01
-1.761501799000e+05 7.316444666800e+06 -6.159000000000e+01
-1.761488276000e+05 7.316444538000e+06 -6.159000000000e+01
-1.761358836000e+05 7.316439643800e+06 -6.159000000000e+01
-1.761244852000e+05 7.316435457900e+06 -6.159000000000e+01
-1.761213941000e+05 7.316434942700e+06 -6.159000000000e+01
-1.761099313000e+05 7.316430692500e+06 -6.159000000000e+01
-1.760974381000e+05 7.316426828600e+06 -6.159000000000e+01
-1.760962790000e+05 7.316427537000e+06 -6.159000000000e+01
-1.760864261000e+05 7.316425154300e+06 -6.159000000000e+01
-1.760744481000e+05 7.316421548000e+06 -6.159000000000e+01
[...]
POINT_DATA 7341
SCALARS T(C) double 1
LOOKUP_TABLE default
7.347756928721e+00
8.960329738063e+00
7.960986307632e+00
6.574266655447e+00
6.529812108914e+00
2.500000000000e+01
6.066281331521e+00
7.236797832236e+00
7.272437373917e+00
5.814905881764e+00
2.500000000000e+01
5.690831144614e+00
5.454445847627e+00
2.500000000000e+01
5.323154406333e+00
5.084203622840e+00
2.500000000000e+01
4.948891166994e+00
4.756750150373e+00
2.500000000000e+01
4.584592100932e+00
4.386542553019e+00
4.352004045672e+00
2.500000000000e+01
4.179550662855e+00
2.500000000000e+01
4.091137299331e+00
3.955547103938e+00
2.500000000000e+01
3.853242463662e+00
3.617471474723e+00
2.500000000000e+01
3.495709208318e+00
3.879590172632e+00
4.141319737883e+00
2.500000000000e+01
4.449926106632e+00
2.500000000000e+01
6.632891354211e+00
6.303009236133e+00
6.001600192169e+00
5.315402711030e+00
4.989728305187e+00
4.631446729733e+00
4.079110662846e+00
3.528045492846e+00
3.129576610832e+00
3.122344174069e+00
3.010551142437e+00
3.000000000000e+00
3.066903824919e+00
3.078337235547e+00
3.627443550288e+00
3.824158078220e+00
3.609505206746e+00
3.473797562456e+00
3.522506108759e+00
3.372131750496e+00
3.702970774800e+00
4.237310230841e+00
4.392821511365e+00
4.411060164015e+00
4.929531212665e+00
5.356589628157e+00
5.374237090103e+00
6.066228228474e+00
6.920120536160e+00
7.423828957884e+00
8.072874650764e+00
8.089266636584e+00
8.798862458257e+00
9.857247691752e+00
9.922000535681e+00
2.500000000000e+01
2.500000000000e+01
1.054887054216e+01
9.554502139740e+00
8.876387401410e+00
8.255325810031e+00
8.314644236938e+00
8.165055994710e+00
6.835324260859e+00
6.074355964219e+00
5.406288857782e+00
5.058341266057e+00
5.226699724276e+00
4.290423293063e+00
4.426715684887e+00
4.343095196403e+00
4.408312722000e+00
4.538570636810e+00
4.627810751523e+00
4.908270324047e+00
3.886914227611e+00
3.900764839359e+00
3.983442034154e+00
5.977105430515e+00
5.662305767992e+00
5.660251233774e+00
5.348641076458e+00
6.035116158301e+00
5.704140161400e+00
5.989443457112e+00
6.562590351684e+00
6.346108196274e+00
6.808204721525e+00
7.247683024296e+00
8.138697026426e+00
9.233784726523e+00
9.787073721817e+00
9.823350690993e+00
1.047450507997e+01
1.105966037148e+01
2.500000000000e+01
8.736661760260e+00
8.370574958931e+00
7.839155098412e+00
7.198700827214e+00
7.114131600414e+00
7.451650786378e+00
6.698345630446e+00
6.471124183268e+00
6.947810573016e+00
1.135165125943e+01
1.168066068692e+01
2.500000000000e+01
2.500000000000e+01
2.500000000000e+01
1.268575066151e+01
2.500000000000e+01
2.500000000000e+01
2.500000000000e+01
2.500000000000e+01
1.234049555060e+01
1.100376631741e+01
1.128168385116e+01
2.500000000000e+01
1.174365285514e+01
2.500000000000e+01
1.117051437361e+01
9.116745952202e+00
9.314872142223e+00
8.623988400972e+00
9.078991096106e+00
8.017557530012e+00
8.175801481132e+00
8.190774821123e+00
8.434549846674e+00
8.493586380340e+00
8.318718241737e+00
8.395461388279e+00
8.626943177884e+00
8.827715030954e+00
9.053946485520e+00
9.334839105165e+00
9.422701754220e+00
9.485573718085e+00
9.503602563735e+00
9.718321585220e+00
9.898549282796e+00
9.940842426613e+00
1.011310566438e+01
1.030156921406e+01
1.032100906059e+01
1.054166316607e+01
1.088060792287e+01
1.092560157710e+01
1.277633339187e+01
1.348574164437e+01
1.361485866575e+01
1.337469192811e+01
1.342172299618e+01
1.380971661021e+01
2.500000000000e+01
1.473696683906e+01
2.500000000000e+01
2.500000000000e+01
2.500000000000e+01
1.483311085692e+01
1.421825219618e+01
1.458483969250e+01
1.401741197818e+01
1.378065554532e+01
1.438071579185e+01
1.541316194177e+01
1.573209785939e+01
1.511994244384e+01
1.549242450154e+01
1.516376538243e+01
1.297098656225e+01
1.307796778860e+01
2.500000000000e+01
1.088843554001e+01
1.015593163166e+01
1.120933729782e+01
1.152628474935e+01
1.262851683776e+01
1.365024971686e+01
1.340767212553e+01
1.357161238284e+01
1.324543091559e+01
1.391905000131e+01
1.472651986302e+01
1.541500184404e+01
1.492842877993e+01
1.456762496005e+01
1.466093514879e+01
1.468722425094e+01
1.508997952377e+01
1.356719779996e+01
1.584188561389e+01
1.577863724569e+01
1.558044362764e+01
1.584043970489e+01
1.559659957936e+01
1.599533853435e+01
1.576906900056e+01
1.632887640863e+01
1.612609968155e+01
1.633524481674e+01
1.614533609461e+01
1.618456011133e+01
1.652883060458e+01
1.602757391384e+01
2.500000000000e+01
2.500000000000e+01
2.500000000000e+01
2.500000000000e+01
2.500000000000e+01
2.500000000000e+01
2.500000000000e+01
1.728939313600e+01
1.733010771596e+01
1.760135133349e+01
1.848734304075e+01
1.831266057552e+01
1.808543064896e+01
1.809853597077e+01
1.695160556698e+01
1.690787952426e+01
1.708422216848e+01
1.718177240213e+01
1.817340211467e+01
1.934956517332e+01
2.500000000000e+01
1.938522418347e+01
2.500000000000e+01
1.934754836974e+01
2.500000000000e+01
1.935909608788e+01
1.937843506734e+01
2.500000000000e+01
1.955116460303e+01
2.500000000000e+01
1.941031672784e+01
1.956981132766e+01
2.500000000000e+01
1.949904326613e+01
1.959337387393e+01
2.500000000000e+01
1.822942950698e+01
1.713339773331e+01
1.711092643426e+01
1.704511463138e+01
1.823657548076e+01
1.955784677335e+01
1.961764428728e+01
2.500000000000e+01
1.958805819290e+01
1.962170966125e+01
2.500000000000e+01
1.965316661799e+01
2.500000000000e+01
1.026740585665e+01
1.000162184043e+01
1.139875039655e+01
1.274578628882e+01
1.387570013934e+01
1.534542058308e+01
1.606624721507e+01
1.709439860767e+01
1.698471766230e+01
1.823019184404e+01
1.843903048960e+01
1.825177995608e+01
1.826479897742e+01
1.966799248691e+01
2.500000000000e+01
1.961016377665e+01
2.005144077666e+01
1.828024408772e+01
1.701658015942e+01
1.556236708702e+01
1.479608637411e+01
1.288743088710e+01
1.171299143422e+01
1.155598183033e+01
1.032144512599e+01
9.930149641915e+00
1.006594942757e+01
1.027552155368e+01
1.044696624915e+01
1.045867517017e+01
1.063890127549e+01
1.070702047333e+01
1.084028983229e+01
1.100409467604e+01
1.106396992126e+01
1.121102087561e+01
1.133236942201e+01
1.151608907060e+01
1.156513332966e+01
1.184659475192e+01
1.197924533847e+01
1.187928513358e+01
1.189853963752e+01
1.209586832932e+01
1.227415096069e+01
1.239113985892e+01
1.257138765489e+01
1.357943471090e+01
1.342354225954e+01
1.340897543838e+01
1.326514706409e+01
1.304413346075e+01
1.301640129475e+01
1.278927758260e+01
1.254603901585e+01
1.226830436301e+01
1.214888326081e+01
1.202152395621e+01
1.186556067532e+01
1.166979322237e+01
1.300487806622e+01
1.302792546434e+01
1.314813132215e+01
1.337369852228e+01
1.340185373907e+01
1.355937881005e+01
1.376355813635e+01
1.384571897843e+01
1.401211549675e+01
1.407918237016e+01
1.425549209141e+01
1.430200430299e+01
1.450545498700e+01
1.451785144829e+01
1.469602239984e+01
1.471114357408e+01
1.605370507064e+01
1.609643954744e+01
1.588501555297e+01
1.568659490659e+01
1.549927208153e+01
1.548041910588e+01
1.529789548202e+01
1.528291883929e+01
1.507445938711e+01
1.504946609861e+01
1.488623430712e+01
1.487433087089e+01
1.474304258034e+01
1.470544582442e+01
1.506838014941e+01
1.692660806828e+01
1.680878868888e+01
1.681224819500e+01
1.682858905040e+01
1.690475305898e+01
1.705589643988e+01
1.709512088603e+01
1.720430859946e+01
1.725105373026e+01
1.737565282207e+01
1.756573538494e+01
1.770343730240e+01
1.791685147434e+01
1.915192844101e+01
1.900770896802e+01
1.899358356106e+01
1.886086072490e+01
1.875306230821e+01
1.861266629110e+01
1.859135518878e+01
1.844093658424e+01
1.843393689071e+01
1.835254666354e+01
1.835081971617e+01
1.830066817362e+01
1.964043829839e+01
1.974339955741e+01
1.990338336524e+01
1.993865727245e+01
2.021278870317e+01
2.029959391540e+01
2.060360885104e+01
2.062385159406e+01
2.069281948464e+01
2.054319594266e+01
1.968254162617e+01
2.066937445933e+01
2.023308113489e+01
2.039532111140e+01
2.041355485800e+01
2.056973891365e+01
2.058660690236e+01
2.068353721327e+01
2.070869037745e+01
2.083331108613e+01
2.500000000000e+01
2.500000000000e+01
2.500000000000e+01
2.500000000000e+01
2.084507316960e+01
2.085811166451e+01
2.097090294663e+01
2.107598293178e+01
2.123450255187e+01
2.137993119325e+01
2.143466766327e+01
2.157980309252e+01
2.162270554040e+01
2.128714840783e+01
2.147010070114e+01
2.175882004629e+01
2.185457717913e+01
2.500000000000e+01
2.120037646234e+01
2.211183683202e+01
2.456541661293e+01
2.457688818615e+01
2.159888431126e+01
2.326410108457e+01
2.153204226304e+01
2.132145234227e+01
2.456757890802e+01
2.457306887411e+01
2.458478952099e+01
2.387452190067e+01
2.390357723073e+01
2.500000000000e+01
2.175450644306e+01
2.118425545195e+01
2.092507512293e+01
2.176910417662e+01
2.246220842758e+01
2.246708747381e+01
2.249762939840e+01
2.255288549780e+01
2.500000000000e+01
2.193157155561e+01
2.073608917624e+01
2.104258444531e+01
2.149050591505e+01
2.080065179390e+01
2.146581962520e+01
1.982796049162e+01
1.983558598130e+01
2.013049135132e+01
2.013894868262e+01
2.195081525737e+01
2.197282143532e+01
2.500000000000e+01
2.200758767161e+01
2.500000000000e+01
2.206645049273e+01
2.500000000000e+01
2.083133654536e+01
2.126701872648e+01
2.158515804858e+01
2.148272846312e+01
2.152247141574e+01
2.154012007701e+01
2.050272339146e+01
2.045009477338e+01
1.995235419405e+01
1.988345434496e+01
1.936393478416e+01
1.928460557378e+01
1.881221904977e+01
1.872410685983e+01
1.837709620995e+01
1.830328793767e+01
1.806225755930e+01
1.799068674027e+01
1.646235351456e+01
1.655239140336e+01
1.684210652957e+01
1.727211346987e+01
1.730416959234e+01
1.771799168642e+01
1.779698559194e+01
1.825468690975e+01
1.878464681301e+01
1.878855360408e+01
1.937256556672e+01
2.007822332866e+01
2.008343407871e+01
2.042680987745e+01
2.161194329286e+01
2.500000000000e+01
2.044372386676e+01
2.062725256530e+01
2.063458143444e+01
2.170620051160e+01
2.500000000000e+01
2.126953210947e+01
2.500000000000e+01
2.069149289073e+01
1.984831663693e+01
2.102778805022e+01
1.953269802820e+01
1.911150071718e+01
1.864193349850e+01
1.863434442801e+01
1.799573483113e+01
1.797643398607e+01
1.735363436031e+01
1.679315234354e+01
1.663776133740e+01
1.662686841002e+01
1.605925101024e+01
1.605266182053e+01
1.556907339206e+01
1.553217614119e+01
1.513206664004e+01
1.491184450268e+01
1.403475539506e+01
1.414043426229e+01
1.452212075728e+01
1.456942226045e+01
1.501271837340e+01
1.503412898634e+01
1.514413524765e+01
1.557463047912e+01
1.563138937840e+01
1.605452647846e+01
1.607913586306e+01
1.622074166526e+01
1.674294958451e+01
1.683043138019e+01
1.734084486312e+01
1.738867147682e+01
1.789050869208e+01
1.790631865650e+01
1.796205759672e+01
1.853430240016e+01
1.859739319232e+01
1.944037201916e+01
1.832817411448e+01
1.760736312267e+01
1.755521009662e+01
1.748317023169e+01
1.714147626764e+01
1.683477648828e+01
1.680286453416e+01
1.644131688757e+01
1.605834023250e+01
1.571303679619e+01
1.560988592466e+01
1.526263551776e+01
1.521663414872e+01
1.488195858665e+01
1.483588490444e+01
1.445524031143e+01
1.404713989757e+01
1.402894201291e+01
1.366390881870e+01
1.362131025124e+01
1.323615912413e+01
1.320356895961e+01
1.286426008600e+01
1.278217418192e+01
1.269944906112e+01
1.112240123314e+01
1.122970365238e+01
1.142407415356e+01
1.152381716836e+01
1.182660031780e+01
1.190867118248e+01
1.229062186207e+01
1.232945368656e+01
1.278441624926e+01
1.279433674832e+01
1.332606027160e+01
1.545057893960e+01
1.365169883785e+01
1.366830199443e+01
1.401662155598e+01
1.398446152177e+01
1.434422295255e+01
1.441852406015e+01
1.478866557550e+01
1.482016458789e+01
1.523120307045e+01
1.525796034628e+01
1.567555363899e+01
1.579972089387e+01
1.625333128893e+01
1.685283248232e+01
1.554060907258e+01
1.504517930241e+01
1.492032063288e+01
1.493181289838e+01
1.454538483736e+01
1.420006454671e+01
1.386436935707e+01
1.380789217741e+01
1.340294496328e+01
1.335315428792e+01
1.299911604807e+01
1.269015728153e+01
1.267861040567e+01
1.229286883819e+01
1.195020566631e+01
1.156376551933e+01
1.113414518687e+01
1.103852526346e+01
1.067731101947e+01
1.057487366206e+01
1.027084034832e+01
1.016741157524e+01
9.732586212740e+00
9.322995770429e+00
9.163029523622e+00
9.021388797445e+00
8.852267986300e+00
8.584824375530e+00
8.365395010301e+00
8.335246553988e+00
8.151191225499e+00
8.134739871836e+00
7.966975647888e+00
7.946756766403e+00
7.773803677593e+00
7.745094719008e+00
7.527215309774e+00
7.317714822323e+00
7.122740662530e+00
6.955824235452e+00
6.737863004820e+00
6.613405317793e+00
8.071672545600e+00
5.028661977469e+00
5.089398677832e+00
5.154547078184e+00
5.289276452959e+00
5.315616820598e+00
5.470428597661e+00
5.547544044903e+00
5.669521469573e+00
5.753422266825e+00
5.881143908098e+00
6.007979185037e+00
6.079420330656e+00
6.367710942897e+00
6.392643075906e+00
6.663298920657e+00
6.833650312771e+00
6.923840728763e+00
7.081561118672e+00
7.184101394821e+00
7.350530380794e+00
7.564203635839e+00
7.966742732581e+00
8.238883401337e+00
8.488828620817e+00
8.650176209763e+00
9.002558535977e+00
9.202095839217e+00
9.549224087308e+00
9.974870518214e+00
1.045316166469e+01
1.047254256140e+01
1.087314570469e+01
1.095576067011e+01
1.129603513701e+01
1.140493221152e+01
1.167119139244e+01
1.207869564725e+01
1.209611454822e+01
1.252188273868e+01
1.268676152117e+01
1.301401160115e+01
1.313832102078e+01
1.347384986468e+01
1.354306587871e+01
1.369345291621e+01
1.399904956149e+01
1.400793027333e+01
1.373313830662e+01
1.370934007433e+01
1.337259399322e+01
1.311597992662e+01
1.300771889754e+01
1.274303161577e+01
1.268677089683e+01
1.238372153404e+01
1.230870169142e+01
1.198341752303e+01
1.184686529448e+01
1.162695605272e+01
1.148848454587e+01
1.120598400896e+01
1.107082558477e+01
1.076739613504e+01
1.063750608726e+01
1.038021630061e+01
1.018328793095e+01
9.961096711391e+00
9.804694224099e+00
9.755096391736e+00
9.387471063577e+00
8.987659152440e+00
8.694861818634e+00
8.493724214865e+00
8.372335575242e+00
8.149121451749e+00
8.039652536361e+00
7.820746845029e+00
7.767013338641e+00
7.515113215647e+00
7.497726289620e+00
7.244142861584e+00
7.214087704220e+00
6.896538112449e+00
6.845208927255e+00
6.546855560298e+00
6.504590877969e+00
6.193628410724e+00
6.141963516431e+00
5.851668576975e+00
5.754155514308e+00
5.413184624111e+00
5.320593194292e+00
4.932824439600e+00
4.860910488576e+00
4.486717043740e+00
4.360329321988e+00
4.107574463663e+00
5.124819769260e+00
5.428631987952e+00
5.752923204931e+00
5.897810168816e+00
6.219215837378e+00
6.321914322897e+00
6.615048588167e+00
6.772164670600e+00
7.015763860754e+00
7.203689389558e+00
7.387863806741e+00
7.702897396012e+00
7.722148341590e+00
7.977885501775e+00
8.043817856394e+00
8.303475070401e+00
8.400874620898e+00
8.632093795885e+00
8.719168760771e+00
8.877950591743e+00
9.030202251259e+00
9.203810999598e+00
9.368621446880e+00
9.514183785578e+00
9.644469982795e+00
9.832747715228e+00
9.874708080652e+00
1.003042839734e+01
1.012344188740e+01
1.040379327392e+01
1.042224097293e+01
1.060405010898e+01
1.074954493953e+01
1.088595924966e+01
1.100191805127e+01
1.113067643840e+01
1.125536321598e+01
1.147395149072e+01
1.172079831165e+01
1.177582036053e+01
1.199152276217e+01
1.204443665016e+01
1.229523853295e+01
1.230832341753e+01
1.257850007813e+01
1.286439418447e+01
1.289610174364e+01
1.312448834461e+01
1.316666053366e+01
1.329419931100e+01
1.347921514551e+01
1.363937664930e+01
1.386608928635e+01
1.411626430689e+01
1.429358389093e+01
1.482187539881e+01
1.511913949925e+01
1.468087333222e+01
1.456630414061e+01
1.446171898087e+01
1.436175012442e+01
1.426084993629e+01
1.418169593392e+01
1.407008145281e+01
1.397104402349e+01
1.387885498350e+01
1.377755695588e+01
1.367733802371e+01
1.358786001729e+01
1.347150157292e+01
1.337247827749e+01
1.326930992168e+01
1.324738028499e+01
1.309430998935e+01
1.301299618416e+01
1.290892325140e+01
1.283297090068e+01
1.271597482966e+01
1.262399244506e+01
1.248509281225e+01
1.240711214835e+01
1.224184038227e+01
1.219374471556e+01
1.202863396437e+01
1.191431254536e+01
1.177432180788e+01
1.155582529558e+01
1.142854535942e+01
1.126016712015e+01
1.110204067162e+01
1.096874909785e+01
1.079230969067e+01
1.064979130211e+01
1.034860194842e+01
1.031077162486e+01
1.003008788070e+01
1.001051240671e+01
9.688791726304e+00
9.346846028468e+00
9.321926464799e+00
8.971520518011e+00
8.616044117184e+00
8.333533342032e+00
8.123275149753e+00
7.756461984066e+00
7.711348851180e+00
7.379849918645e+00
7.359952555333e+00
7.084238796421e+00
6.676745056584e+00
6.291496569900e+00
7.744226366296e+00
8.141560448488e+00
8.205975160191e+00
8.544140088268e+00
8.602080680032e+00
8.890607112934e+00
9.160331185871e+00
9.266232749706e+00
9.516896854470e+00
9.565300990642e+00
9.672185234370e+00
9.778779035285e+00
9.883992707707e+00
1.012928612551e+01
1.020057830577e+01
1.046033503461e+01
1.053077919996e+01
1.078604791702e+01
1.092954011708e+01
1.113916070339e+01
1.141705951316e+01
1.163631885879e+01
1.165459184757e+01
1.189087988053e+01
1.208131152470e+01
1.212910372740e+01
1.239010318690e+01
1.260672020951e+01
1.271457729655e+01
1.284410651229e+01
1.295846322203e+01
1.319160914021e+01
1.342461067125e+01
1.345263353852e+01
1.368695928826e+01
1.372779862403e+01
1.392662515358e+01
1.398400360879e+01
1.414512491255e+01
1.418254550799e+01
1.435500052652e+01
1.438784225246e+01
1.451996226527e+01
1.461418416990e+01
1.473157371456e+01
1.484037703775e+01
1.492644412807e+01
1.503945170690e+01
1.511964466346e+01
1.524924092479e+01
1.534999825041e+01
1.544048121480e+01
1.553494311784e+01
1.562775531792e+01
1.572719529776e+01
1.580299399515e+01
1.592692325651e+01
1.638876010827e+01
1.688216193516e+01
1.675709040883e+01
1.674679759476e+01
1.658456071133e+01
1.657415988161e+01
1.639905942756e+01
1.623866160666e+01
1.619309206129e+01
1.605635573736e+01
1.602397237289e+01
1.588856056442e+01
1.584761655123e+01
1.568896895468e+01
1.567956281508e+01
1.552125634493e+01
1.548731290845e+01
1.532836788095e+01
1.530244212878e+01
1.513510506078e+01
1.511623104980e+01
1.494496896057e+01
1.492820364492e+01
1.477835288494e+01
1.472635645476e+01
1.453567605614e+01
1.452066559050e+01
1.434373518625e+01
1.432326976168e+01
1.414790757295e+01
1.413132031421e+01
1.391721684943e+01
1.364504728869e+01
1.342122244851e+01
1.332442777267e+01
1.317576600778e+01
1.307646364044e+01
1.292671192147e+01
1.264380642878e+01
1.252298801532e+01
1.238004912905e+01
1.232291136137e+01
1.215135416326e+01
1.206736132849e+01
1.196252674379e+01
1.185617168569e+01
1.177769465122e+01
1.160958043843e+01
1.157712334322e+01
1.117524455937e+01
1.072013326717e+01
1.041943354230e+01
1.001003562315e+01
1.201445596679e+01
1.243502206415e+01
2.500000000000e+01
1.245358382004e+01
1.248157581408e+01
2.500000000000e+01
1.268147513590e+01
2.500000000000e+01
1.262607997677e+01
1.285128238957e+01
1.286575082381e+01
1.311382250589e+01
1.317123858506e+01
1.330408469193e+01
1.342447941024e+01
1.346285661527e+01
1.363629449194e+01
1.365690876954e+01
1.385368506907e+01
1.388906496324e+01
1.407122724593e+01
1.405777804646e+01
1.423623440888e+01
1.424963958669e+01
1.441471882747e+01
1.446848716838e+01
1.462164435293e+01
1.468660427773e+01
1.483606574094e+01
1.497552017821e+01
1.534058781318e+01
1.549031042587e+01
1.552995785394e+01
1.562403204478e+01
1.566786547178e+01
1.574298614556e+01
1.584002827625e+01
1.587117610757e+01
1.599066669760e+01
1.604224690419e+01
1.614834234515e+01
1.631416314849e+01
1.643151406400e+01
1.646050985276e+01
1.657399688208e+01
1.673079421436e+01
1.680957407045e+01
1.687904618227e+01
1.696607018130e+01
1.700712501468e+01
1.706445500307e+01
1.719862971338e+01
1.722243376934e+01
1.731739923471e+01
1.734805854434e+01
1.751527888125e+01
1.752630565726e+01
1.769068783405e+01
1.741199837979e+01
1.845245862450e+01
1.843623717074e+01
1.840267615973e+01
1.839341228243e+01
1.836234494314e+01
1.834289326154e+01
1.826587717181e+01
1.821584963938e+01
1.819862180962e+01
1.811832653318e+01
1.811152506520e+01
1.805725743429e+01
1.805757842943e+01
1.797584451185e+01
1.792753324067e+01
1.791319543302e+01
1.786024956218e+01
1.784221755416e+01
1.775966468749e+01
1.773834793425e+01
1.767877910105e+01
1.765982253083e+01
1.755395468042e+01
1.751118136424e+01
1.750866898596e+01
1.745013346600e+01
1.739377971626e+01
1.738636543327e+01
1.732264819519e+01